 Entering Gaussian System, Link 0=/cm/shared/apps/spack/cpu/opt/spack/linux-centos8-zen/gcc-8.3.1/gaussian-16.C.01-po5bqktfeugvmjyga3v7eigbecnokxng/g16/g16
 Input=/home/mgalante/Seidel/EDA/R_S12b__S31b/R_rctfrag.com
 Output=/home/mgalante/Seidel/EDA/R_S12b__S31b/R_rctfrag.log
 Initial command:
 /cm/shared/apps/spack/cpu/opt/spack/linux-centos8-zen/gcc-8.3.1/gaussian-16.C.01-po5bqktfeugvmjyga3v7eigbecnokxng/g16/l1.exe "/scratch/mgalante/job_37696657/Gau-3266804.inp" -scrdir="/scratch/mgalante/job_37696657/"
 Default is to use a total of  16 processors:
                               16 via shared-memory
                                1 via Linda
 Entering Link 1 = /cm/shared/apps/spack/cpu/opt/spack/linux-centos8-zen/gcc-8.3.1/gaussian-16.C.01-po5bqktfeugvmjyga3v7eigbecnokxng/g16/l1.exe PID=   3266805.
  
 Copyright (c) 1988-2019, Gaussian, Inc.  All Rights Reserved.
  
 This is part of the Gaussian(R) 16 program.  It is based on
 the Gaussian(R) 09 system (copyright 2009, Gaussian, Inc.),
 the Gaussian(R) 03 system (copyright 2003, Gaussian, Inc.),
 the Gaussian(R) 98 system (copyright 1998, Gaussian, Inc.),
 the Gaussian(R) 94 system (copyright 1995, Gaussian, Inc.),
 the Gaussian 92(TM) system (copyright 1992, Gaussian, Inc.),
 the Gaussian 90(TM) system (copyright 1990, Gaussian, Inc.),
 the Gaussian 88(TM) system (copyright 1988, Gaussian, Inc.),
 the Gaussian 86(TM) system (copyright 1986, Carnegie Mellon
 University), and the Gaussian 82(TM) system (copyright 1983,
 Carnegie Mellon University). Gaussian is a federally registered
 trademark of Gaussian, Inc.
  
 This software contains proprietary and confidential information,
 including trade secrets, belonging to Gaussian, Inc.
  
 This software is provided under written license and may be
 used, copied, transmitted, or stored only in accord with that
 written license.
  
 The following legend is applicable only to US Government
 contracts under FAR:
  
                    RESTRICTED RIGHTS LEGEND
  
 Use, reproduction and disclosure by the US Government is
 subject to restrictions as set forth in subparagraphs (a)
 and (c) of the Commercial Computer Software - Restricted
 Rights clause in FAR 52.227-19.
  
 Gaussian, Inc.
 340 Quinnipiac St., Bldg. 40, Wallingford CT 06492
  
  
 ---------------------------------------------------------------
 Warning -- This program may not be used in any manner that
 competes with the business of Gaussian, Inc. or will provide
 assistance to any competitor of Gaussian, Inc.  The licensee
 of this program is prohibited from giving any competitor of
 Gaussian, Inc. access to this program.  By using this program,
 the user acknowledges that Gaussian, Inc. is engaged in the
 business of creating and licensing software in the field of
 computational chemistry and represents and warrants to the
 licensee that it is not a competitor of Gaussian, Inc. and that
 it will not use this program in any manner prohibited above.
 ---------------------------------------------------------------
  

 Cite this work as:
 Gaussian 16, Revision C.01,
 M. J. Frisch, G. W. Trucks, H. B. Schlegel, G. E. Scuseria, 
 M. A. Robb, J. R. Cheeseman, G. Scalmani, V. Barone, 
 G. A. Petersson, H. Nakatsuji, X. Li, M. Caricato, A. V. Marenich, 
 J. Bloino, B. G. Janesko, R. Gomperts, B. Mennucci, H. P. Hratchian, 
 J. V. Ortiz, A. F. Izmaylov, J. L. Sonnenberg, D. Williams-Young, 
 F. Ding, F. Lipparini, F. Egidi, J. Goings, B. Peng, A. Petrone, 
 T. Henderson, D. Ranasinghe, V. G. Zakrzewski, J. Gao, N. Rega, 
 G. Zheng, W. Liang, M. Hada, M. Ehara, K. Toyota, R. Fukuda, 
 J. Hasegawa, M. Ishida, T. Nakajima, Y. Honda, O. Kitao, H. Nakai, 
 T. Vreven, K. Throssell, J. A. Montgomery, Jr., J. E. Peralta, 
 F. Ogliaro, M. J. Bearpark, J. J. Heyd, E. N. Brothers, K. N. Kudin, 
 V. N. Staroverov, T. A. Keith, R. Kobayashi, J. Normand, 
 K. Raghavachari, A. P. Rendell, J. C. Burant, S. S. Iyengar, 
 J. Tomasi, M. Cossi, J. M. Millam, M. Klene, C. Adamo, R. Cammi, 
 J. W. Ochterski, R. L. Martin, K. Morokuma, O. Farkas, 
 J. B. Foresman, and D. J. Fox, Gaussian, Inc., Wallingford CT, 2019.
 
 ******************************************
 Gaussian 16:  ES64L-G16RevC.01  3-Jul-2019
                21-Mar-2025 
 ******************************************
 %chk=R_rctfrag.chk
 ----------------------------------------------------------------------
 #p B3LYP 6-311++G** empiricaldispersion=gd3bj pop=nbo scf=tight scrf=(
 pcm,solvent=Toluene)
 ----------------------------------------------------------------------
 1/38=1,172=1/1;
 2/12=2,17=6,18=5,40=1/2;
 3/5=4,6=6,7=1111,11=2,25=1,30=1,70=2201,72=13,74=-5,124=41/1,2,3;
 4//1;
 5/5=2,32=2,38=5,53=13/2;
 6/7=2,8=2,9=2,10=2,28=1,40=1/1,7;
 99/5=1,9=1/99;
 Leave Link    1 at Fri Mar 21 16:48:47 2025, MaxMem=           0 cpu:               0.8 elap:               0.1
 (Enter /cm/shared/apps/spack/cpu/opt/spack/linux-centos8-zen/gcc-8.3.1/gaussian-16.C.01-po5bqktfeugvmjyga3v7eigbecnokxng/g16/l101.exe)
 --------------------------
 reactant fragmant from S15
 --------------------------
 Symbolic Z-matrix:
 Charge =  1 Multiplicity = 1
 C                    -1.97833  -1.89521  -3.61326 
 C                    -3.20239  -1.4868   -3.01006 
 C                    -4.11965  -2.4105   -2.49929 
 C                    -3.75487  -3.74701  -2.5185 
 C                    -2.52369  -4.16884  -3.06902 
 C                    -1.64264  -3.26358  -3.63176 
 C                    -1.32008  -0.7092   -4.06585 
 C                    -2.12237   0.36412  -3.69373 
 H                    -5.06458  -2.08487  -2.0869 
 H                    -4.41944  -4.48153  -2.07814 
 H                    -2.26438  -5.22211  -3.0411 
 H                    -0.69705  -3.59352  -4.04213 
 N                    -3.24975  -0.1109   -3.03914 
 H                    -4.0295    0.44617  -2.72347 
 C                    -1.69048   1.75375  -3.7624 
 C                     0.06525  -0.58903  -4.62425 
 C                     0.86359   0.66324  -4.14882 
 N                     0.10595   1.45589  -3.15105 
 H                     0.62946  -1.4813   -4.3423 
 H                     0.03958  -0.5723   -5.72173 
 H                     1.77665   0.3366   -3.65022 
 H                     1.12753   1.33235  -4.96747 
 C                     0.64007   2.71886  -2.76321 
 O                     0.95028   3.59744  -3.52553 
 O                     0.62531   2.74176  -1.41832 
 H                    -0.09145   0.87806  -2.30307 
 C                     0.57875   3.87377  -0.62286 
 C                     0.72923   5.18297  -1.07984 
 C                     0.30698   3.57677   0.71477 
 C                     0.56817   6.21935  -0.16387 
 H                     0.95991   5.38206  -2.1156 
 C                     0.15318   4.612     1.62364 
 H                     0.19816   2.54034   1.009 
 C                     0.27714   5.92331   1.16596 
 H                     0.6665    7.25324  -0.46914 
 H                    -0.06729   4.41887   2.66372 
 N                     0.09297   7.02388   2.11703 
 O                    -0.13787   6.73236   3.29177 
 O                     0.17375   8.17442   1.68632 
 C                    -1.43543   2.26233  -5.16827 
 C                    -2.23401   2.74629  -2.78348 
 C                    -2.38938   4.09606  -3.14543 
 C                    -2.47754   2.37742  -1.44607 
 C                    -2.78128   5.04673  -2.20574 
 H                    -2.1988    4.41552  -4.16236 
 C                    -2.84458   3.33732  -0.50689 
 H                    -2.30171   1.35715  -1.13132 
 C                    -3.00157   4.67243  -0.88082 
 H                    -2.89592   6.08314  -2.50769 
 H                    -2.96842   3.04565   0.53121 
 H                    -3.27551   5.41856  -0.14103 
 H                    -1.06448   1.46543  -5.81139 
 H                    -2.40008   2.57946  -5.58049 
 H                    -0.74449   3.10642  -5.19231 
 
 ITRead=  0  0  0  0  0  0  0  0  0  0  0  0  0  0  0  0  0  0  0  0
 ITRead=  0  0  0  0  0  0  0  0  0  0  0  0  0  0  0  0  0  0  0  0
 ITRead=  0  0  0  0  0  0  0  0  0  0  0  0  0  0
 MicOpt= -1 -1 -1 -1 -1 -1 -1 -1 -1 -1 -1 -1 -1 -1 -1 -1 -1 -1 -1 -1
 MicOpt= -1 -1 -1 -1 -1 -1 -1 -1 -1 -1 -1 -1 -1 -1 -1 -1 -1 -1 -1 -1
 MicOpt= -1 -1 -1 -1 -1 -1 -1 -1 -1 -1 -1 -1 -1 -1
 NAtoms=     54 NQM=       54 NQMF=       0 NMMI=      0 NMMIF=      0
                NMic=       0 NMicF=      0.
                    Isotopes and Nuclear Properties:
 (Nuclear quadrupole moments (NQMom) in fm**2, nuclear magnetic moments (NMagM)
  in nuclear magnetons)

  Atom         1           2           3           4           5           6           7           8           9          10
 IAtWgt=          12          12          12          12          12          12          12          12           1           1
 AtmWgt=  12.0000000  12.0000000  12.0000000  12.0000000  12.0000000  12.0000000  12.0000000  12.0000000   1.0078250   1.0078250
 NucSpn=           0           0           0           0           0           0           0           0           1           1
 AtZEff=  -0.0000000  -0.0000000  -0.0000000  -0.0000000  -0.0000000  -0.0000000  -0.0000000  -0.0000000  -0.0000000  -0.0000000
 NQMom=    0.0000000   0.0000000   0.0000000   0.0000000   0.0000000   0.0000000   0.0000000   0.0000000   0.0000000   0.0000000
 NMagM=    0.0000000   0.0000000   0.0000000   0.0000000   0.0000000   0.0000000   0.0000000   0.0000000   2.7928460   2.7928460
 AtZNuc=   6.0000000   6.0000000   6.0000000   6.0000000   6.0000000   6.0000000   6.0000000   6.0000000   1.0000000   1.0000000

  Atom        11          12          13          14          15          16          17          18          19          20
 IAtWgt=           1           1          14           1          12          12          12          14           1           1
 AtmWgt=   1.0078250   1.0078250  14.0030740   1.0078250  12.0000000  12.0000000  12.0000000  14.0030740   1.0078250   1.0078250
 NucSpn=           1           1           2           1           0           0           0           2           1           1
 AtZEff=  -0.0000000  -0.0000000  -0.0000000  -0.0000000  -0.0000000  -0.0000000  -0.0000000  -0.0000000  -0.0000000  -0.0000000
 NQMom=    0.0000000   0.0000000   2.0440000   0.0000000   0.0000000   0.0000000   0.0000000   2.0440000   0.0000000   0.0000000
 NMagM=    2.7928460   2.7928460   0.4037610   2.7928460   0.0000000   0.0000000   0.0000000   0.4037610   2.7928460   2.7928460
 AtZNuc=   1.0000000   1.0000000   7.0000000   1.0000000   6.0000000   6.0000000   6.0000000   7.0000000   1.0000000   1.0000000

  Atom        21          22          23          24          25          26          27          28          29          30
 IAtWgt=           1           1          12          16          16           1          12          12          12          12
 AtmWgt=   1.0078250   1.0078250  12.0000000  15.9949146  15.9949146   1.0078250  12.0000000  12.0000000  12.0000000  12.0000000
 NucSpn=           1           1           0           0           0           1           0           0           0           0
 AtZEff=  -0.0000000  -0.0000000  -0.0000000  -0.0000000  -0.0000000  -0.0000000  -0.0000000  -0.0000000  -0.0000000  -0.0000000
 NQMom=    0.0000000   0.0000000   0.0000000   0.0000000   0.0000000   0.0000000   0.0000000   0.0000000   0.0000000   0.0000000
 NMagM=    2.7928460   2.7928460   0.0000000   0.0000000   0.0000000   2.7928460   0.0000000   0.0000000   0.0000000   0.0000000
 AtZNuc=   1.0000000   1.0000000   6.0000000   8.0000000   8.0000000   1.0000000   6.0000000   6.0000000   6.0000000   6.0000000

  Atom        31          32          33          34          35          36          37          38          39          40
 IAtWgt=           1          12           1          12           1           1          14          16          16          12
 AtmWgt=   1.0078250  12.0000000   1.0078250  12.0000000   1.0078250   1.0078250  14.0030740  15.9949146  15.9949146  12.0000000
 NucSpn=           1           0           1           0           1           1           2           0           0           0
 AtZEff=  -0.0000000  -0.0000000  -0.0000000  -0.0000000  -0.0000000  -0.0000000  -0.0000000  -0.0000000  -0.0000000  -0.0000000
 NQMom=    0.0000000   0.0000000   0.0000000   0.0000000   0.0000000   0.0000000   2.0440000   0.0000000   0.0000000   0.0000000
 NMagM=    2.7928460   0.0000000   2.7928460   0.0000000   2.7928460   2.7928460   0.4037610   0.0000000   0.0000000   0.0000000
 AtZNuc=   1.0000000   6.0000000   1.0000000   6.0000000   1.0000000   1.0000000   7.0000000   8.0000000   8.0000000   6.0000000

  Atom        41          42          43          44          45          46          47          48          49          50
 IAtWgt=          12          12          12          12           1          12           1          12           1           1
 AtmWgt=  12.0000000  12.0000000  12.0000000  12.0000000   1.0078250  12.0000000   1.0078250  12.0000000   1.0078250   1.0078250
 NucSpn=           0           0           0           0           1           0           1           0           1           1
 AtZEff=  -0.0000000  -0.0000000  -0.0000000  -0.0000000  -0.0000000  -0.0000000  -0.0000000  -0.0000000  -0.0000000  -0.0000000
 NQMom=    0.0000000   0.0000000   0.0000000   0.0000000   0.0000000   0.0000000   0.0000000   0.0000000   0.0000000   0.0000000
 NMagM=    0.0000000   0.0000000   0.0000000   0.0000000   2.7928460   0.0000000   2.7928460   0.0000000   2.7928460   2.7928460
 AtZNuc=   6.0000000   6.0000000   6.0000000   6.0000000   1.0000000   6.0000000   1.0000000   6.0000000   1.0000000   1.0000000

  Atom        51          52          53          54
 IAtWgt=           1           1           1           1
 AtmWgt=   1.0078250   1.0078250   1.0078250   1.0078250
 NucSpn=           1           1           1           1
 AtZEff=  -0.0000000  -0.0000000  -0.0000000  -0.0000000
 NQMom=    0.0000000   0.0000000   0.0000000   0.0000000
 NMagM=    2.7928460   2.7928460   2.7928460   2.7928460
 AtZNuc=   1.0000000   1.0000000   1.0000000   1.0000000
 Leave Link  101 at Fri Mar 21 16:48:47 2025, MaxMem=  3758096384 cpu:               0.8 elap:               0.1
 (Enter /cm/shared/apps/spack/cpu/opt/spack/linux-centos8-zen/gcc-8.3.1/gaussian-16.C.01-po5bqktfeugvmjyga3v7eigbecnokxng/g16/l202.exe)
 Stoichiometry    C25H22N3O4(1+)
 Framework group  C1[X(C25H22N3O4)]
 Deg. of freedom   156
 Full point group                 C1      NOp   1
 Largest Abelian subgroup         C1      NOp   1
 Largest concise Abelian subgroup C1      NOp   1
                         Standard orientation:                         
 ---------------------------------------------------------------------
 Center     Atomic      Atomic             Coordinates (Angstroms)
 Number     Number       Type             X           Y           Z
 ---------------------------------------------------------------------
      1          6           0       -4.553692   -0.263963   -0.477979
      2          6           0       -4.204902   -1.380613    0.334689
      3          6           0       -4.959344   -2.558018    0.337179
      4          6           0       -6.018060   -2.637521   -0.553048
      5          6           0       -6.351562   -1.558587   -1.402458
      6          6           0       -5.645871   -0.369981   -1.361942
      7          6           0       -3.609166    0.771011   -0.192628
      8          6           0       -2.707826    0.251011    0.730056
      9          1           0       -4.706610   -3.378153    0.994816
     10          1           0       -6.586681   -3.558318   -0.615506
     11          1           0       -7.172000   -1.670774   -2.103663
     12          1           0       -5.901157    0.448038   -2.023061
     13          7           0       -3.061955   -1.056359    1.030892
     14          1           0       -2.620352   -1.645235    1.720963
     15          6           0       -1.460681    0.909100    1.095925
     16          6           0       -3.450576    2.083658   -0.897741
     17          6           0       -1.976400    2.536700   -1.128207
     18          7           0       -1.005692    1.514444   -0.669347
     19          1           0       -3.942852    2.014263   -1.870799
     20          1           0       -3.963707    2.882843   -0.346922
     21          1           0       -1.804632    2.663141   -2.197546
     22          1           0       -1.736088    3.469483   -0.618582
     23          6           0        0.374578    1.868726   -0.656858
     24          8           0        0.830184    2.839580   -0.109937
     25          8           0        1.029477    0.870812   -1.277137
     26          1           0       -1.139134    0.623859   -1.199422
     27          6           0        2.357319    0.527106   -1.089850
     28          6           0        3.286346    1.275913   -0.367584
     29          6           0        2.677541   -0.704304   -1.666381
     30          6           0        4.563669    0.748040   -0.197825
     31          1           0        3.016873    2.234696    0.049283
     32          6           0        3.952206   -1.222644   -1.499150
     33          1           0        1.912382   -1.240692   -2.213570
     34          6           0        4.876537   -0.489479   -0.755877
     35          1           0        5.318994    1.285385    0.361231
     36          1           0        4.231161   -2.176760   -1.922862
     37          7           0        6.219646   -1.042316   -0.555521
     38          8           0        6.476651   -2.126266   -1.082095
     39          8           0        7.010301   -0.395085    0.131305
     40          6           0       -1.637640    2.231583    1.816957
     41          6           0       -0.279518    0.083676    1.498888
     42          6           0        0.658032    0.579783    2.421873
     43          6           0       -0.013828   -1.147198    0.867697
     44          6           0        1.820243   -0.131451    2.711328
     45          1           0        0.490344    1.528515    2.916138
     46          6           0        1.161750   -1.840195    1.143287
     47          1           0       -0.689399   -1.515917    0.107043
     48          6           0        2.080782   -1.339794    2.066307
     49          1           0        2.529798    0.270173    3.428049
     50          1           0        1.378576   -2.755913    0.602462
     51          1           0        3.001843   -1.878538    2.267428
     52          1           0       -2.533322    2.747583    1.473808
     53          1           0       -1.788432    2.006566    2.878879
     54          1           0       -0.772124    2.887686    1.712644
 ---------------------------------------------------------------------
 Rotational constants (GHZ):           0.3106183           0.0747500           0.0709601
 Leave Link  202 at Fri Mar 21 16:48:47 2025, MaxMem=  3758096384 cpu:               0.0 elap:               0.0
 (Enter /cm/shared/apps/spack/cpu/opt/spack/linux-centos8-zen/gcc-8.3.1/gaussian-16.C.01-po5bqktfeugvmjyga3v7eigbecnokxng/g16/l301.exe)
 Standard basis: 6-311++G(d,p) (5D, 7F)
 Ernie: Thresh=  0.10000D-02 Tol=  0.10000D-05 Strict=F.
 There are   890 symmetry adapted cartesian basis functions of A   symmetry.
 There are   858 symmetry adapted basis functions of A   symmetry.
   858 basis functions,  1350 primitive gaussians,   890 cartesian basis functions
   112 alpha electrons      112 beta electrons
       nuclear repulsion energy      3200.3937968004 Hartrees.
 IExCor=  402 DFT=T Ex+Corr=B3LYP ExCW=0 ScaHFX=  0.200000
 ScaDFX=  0.800000  0.720000  1.000000  0.810000 ScalE2=  1.000000  1.000000
 IRadAn=      5 IRanWt=     -1 IRanGd=            0 ICorTp=0 IEmpDi=141
 NAtoms=   54 NActive=   54 NUniq=   54 SFac= 1.00D+00 NAtFMM=   60 NAOKFM=F Big=F
 Integral buffers will be    131072 words long.
 Raffenetti 2 integral format.
 Two-electron integral symmetry is turned on.
 R6Disp:  Grimme-D3(BJ) Dispersion energy=       -0.1413736153 Hartrees.
 Nuclear repulsion after empirical dispersion term =     3200.2524231851 Hartrees.
 ------------------------------------------------------------------------------
 Polarizable Continuum Model (PCM)
 =================================
 Model                : PCM.
 Atomic radii         : UFF (Universal Force Field).
 Polarization charges : Total charges.
 Charge compensation  : None.
 Solution method      : On-the-fly selection.
 Cavity type          : Scaled VdW (van der Waals Surface) (Alpha=1.100).
 Cavity algorithm     : GePol (No added spheres)
                        Default sphere list used, NSphG=   54.
                        Lebedev-Laikov grids with approx.  5.0 points / Ang**2.
                        Smoothing algorithm: York/Karplus (Gamma=1.0000).
                        Polarization charges: spherical gaussians, with
                                              point-specific exponents (IZeta= 3).
                        Self-potential: point-specific (ISelfS= 7).
                        Self-field    : sphere-specific E.n sum rule (ISelfD= 2).
 Solvent              : Toluene, Eps=   2.374100 Eps(inf)=   2.238315
 ------------------------------------------------------------------------------
 GePol: Number of generator spheres                  =      54
 GePol: Total number of spheres                      =      54
 GePol: Number of exposed spheres                    =      54 (100.00%)
 GePol: Number of points                             =    3627
 GePol: Average weight of points                     =       0.13
 GePol: Minimum weight of points                     =   0.13D-11
 GePol: Maximum weight of points                     =    0.20577
 GePol: Number of points with low weight             =     287
 GePol: Fraction of low-weight points (<1% of avg)   =       7.91%
 GePol: Cavity surface area                          =    464.859 Ang**2
 GePol: Cavity volume                                =    558.093 Ang**3
 Leave Link  301 at Fri Mar 21 16:48:47 2025, MaxMem=  3758096384 cpu:               0.6 elap:               0.0
 (Enter /cm/shared/apps/spack/cpu/opt/spack/linux-centos8-zen/gcc-8.3.1/gaussian-16.C.01-po5bqktfeugvmjyga3v7eigbecnokxng/g16/l302.exe)
 NPDir=0 NMtPBC=     1 NCelOv=     1 NCel=       1 NClECP=     1 NCelD=      1
         NCelK=      1 NCelE2=     1 NClLst=     1 CellRange=     0.0.
 One-electron integrals computed using PRISM.
 One-electron integral symmetry used in STVInt
 NBasis=   858 RedAO= T EigKep=  1.21D-06  NBF=   858
 NBsUse=   849 1.00D-06 EigRej=  9.91D-07 NBFU=   849
 Precomputing XC quadrature grid using
 IXCGrd= 4 IRadAn=           5 IRanWt=          -1 IRanGd=           0 AccXCQ= 0.00D+00.
 Generated NRdTot=       0 NPtTot=           0 NUsed=           0 NTot=          32
 NSgBfM=   871   870   871   871   871 MxSgAt=    54 MxSgA2=    54.
 Leave Link  302 at Fri Mar 21 16:48:49 2025, MaxMem=  3758096384 cpu:              20.6 elap:               1.3
 (Enter /cm/shared/apps/spack/cpu/opt/spack/linux-centos8-zen/gcc-8.3.1/gaussian-16.C.01-po5bqktfeugvmjyga3v7eigbecnokxng/g16/l303.exe)
 DipDrv:  MaxL=1.
 Leave Link  303 at Fri Mar 21 16:48:49 2025, MaxMem=  3758096384 cpu:               2.1 elap:               0.2
 (Enter /cm/shared/apps/spack/cpu/opt/spack/linux-centos8-zen/gcc-8.3.1/gaussian-16.C.01-po5bqktfeugvmjyga3v7eigbecnokxng/g16/l401.exe)
 ExpMin= 3.60D-02 ExpMax= 8.59D+03 ExpMxC= 1.30D+03 IAcc=3 IRadAn=         5 AccDes= 0.00D+00
 Harris functional with IExCor=  402 and IRadAn=       5 diagonalized for initial guess.
 HarFok:  IExCor=  402 AccDes= 0.00D+00 IRadAn=         5 IDoV= 1 UseB2=F ITyADJ=14
 ICtDFT=  3500011 ScaDFX=  1.000000  1.000000  1.000000  1.000000
 FoFCou: FMM=F IPFlag=           0 FMFlag=      100000 FMFlg1=           0
         NFxFlg=           0 DoJE=T BraDBF=F KetDBF=T FulRan=T
         wScrn=  0.000000 ICntrl=       500 IOpCl=  0 I1Cent=   200000004 NGrid=           0
         NMat0=    1 NMatS0=      1 NMatT0=    0 NMatD0=    1 NMtDS0=    0 NMtDT0=    0
 Petite list used in FoFCou.
 Harris En= -1431.31460574059    
 JPrj=0 DoOrth=F DoCkMO=F.
 Leave Link  401 at Fri Mar 21 16:48:53 2025, MaxMem=  3758096384 cpu:              70.2 elap:               4.4
 (Enter /cm/shared/apps/spack/cpu/opt/spack/linux-centos8-zen/gcc-8.3.1/gaussian-16.C.01-po5bqktfeugvmjyga3v7eigbecnokxng/g16/l502.exe)
 Integral symmetry usage will be decided dynamically.
 Closed shell SCF:
 Using DIIS extrapolation, IDIIS=  1040.
 NGot=  3758096384 LenX=  3756488362 LenY=  3755695372
 Requested convergence on RMS density matrix=1.00D-08 within 128 cycles.
 Requested convergence on MAX density matrix=1.00D-06.
 Requested convergence on             energy=1.00D-06.
 No special actions if energy rises.
 Fock matrices will be formed incrementally for  20 cycles.

 Cycle   1  Pass 1  IDiag  1:
 FoFJK:  IHMeth= 1 ICntrl=       0 DoSepK=F KAlg= 0 I1Cent=           0 FoldK=F
 IRaf= 780000000 NMat=       1 IRICut=       1 DoRegI=T DoRafI=F ISym2E= 0 IDoP0=0 IntGTp=1.
 FoFCou: FMM=F IPFlag=           0 FMFlag=      100000 FMFlg1=           0
         NFxFlg=           0 DoJE=F BraDBF=F KetDBF=F FulRan=T
         wScrn=  0.000000 ICntrl=         0 IOpCl=  0 I1Cent=           0 NGrid=           0
         NMat0=    1 NMatS0=      1 NMatT0=    0 NMatD0=    1 NMtDS0=    0 NMtDT0=    0
 Symmetry not used in FoFCou.
 Inv3:  Mode=1 IEnd=    39465387.
 Iteration    1 A*A^-1 deviation from unit magnitude is 4.00D-15 for   2381.
 Iteration    1 A*A^-1 deviation from orthogonality  is 2.89D-15 for   3105   1353.
 Iteration    1 A^-1*A deviation from unit magnitude is 3.77D-15 for   2381.
 Iteration    1 A^-1*A deviation from orthogonality  is 2.00D-15 for   3040    368.
 E= -1430.43232321200    
 DIIS: error= 4.00D-02 at cycle   1 NSaved=   1.
 NSaved= 1 IEnMin= 1 EnMin= -1430.43232321200     IErMin= 1 ErrMin= 4.00D-02
 ErrMax= 4.00D-02  0.00D+00 EMaxC= 1.00D-01 BMatC= 1.01D+00 BMatP= 1.01D+00
 IDIUse=3 WtCom= 6.00D-01 WtEn= 4.00D-01
 Coeff-Com:  0.100D+01
 Coeff-En:   0.100D+01
 Coeff:      0.100D+01
 Gap=     0.071 Goal=   None    Shift=    0.000
 GapD=    0.071 DampG=0.500 DampE=0.500 DampFc=0.2500 IDamp=-1.
 Damping current iteration by 2.50D-01
 RMSDP=3.32D-02 MaxDP=4.70D+00              OVMax= 5.11D-01

 Cycle   2  Pass 1  IDiag  1:
 RMSU=  8.26D-03    CP:  1.02D+00
 E= -1430.71323315530     Delta-E=       -0.280909943300 Rises=F Damp=T
 DIIS: error= 1.36D-02 at cycle   2 NSaved=   2.
 NSaved= 2 IEnMin= 2 EnMin= -1430.71323315530     IErMin= 2 ErrMin= 1.36D-02
 ErrMax= 1.36D-02  0.00D+00 EMaxC= 1.00D-01 BMatC= 2.16D-01 BMatP= 1.01D+00
 IDIUse=3 WtCom= 8.64D-01 WtEn= 1.36D-01
 Coeff-Com: -0.488D+00 0.149D+01
 Coeff-En:   0.000D+00 0.100D+01
 Coeff:     -0.422D+00 0.142D+01
 Gap=     0.128 Goal=   None    Shift=    0.000
 RMSDP=9.02D-03 MaxDP=1.02D+00 DE=-2.81D-01 OVMax= 5.49D-01

 Cycle   3  Pass 1  IDiag  1:
 RMSU=  7.16D-03    CP:  9.24D-01  5.74D-01
 E= -1431.10264410877     Delta-E=       -0.389410953472 Rises=F Damp=F
 DIIS: error= 8.60D-03 at cycle   3 NSaved=   3.
 NSaved= 3 IEnMin= 3 EnMin= -1431.10264410877     IErMin= 3 ErrMin= 8.60D-03
 ErrMax= 8.60D-03  0.00D+00 EMaxC= 1.00D-01 BMatC= 1.81D-01 BMatP= 2.16D-01
 IDIUse=3 WtCom= 9.14D-01 WtEn= 8.60D-02
 Coeff-Com: -0.375D+00 0.913D+00 0.461D+00
 Coeff-En:   0.000D+00 0.000D+00 0.100D+01
 Coeff:     -0.342D+00 0.835D+00 0.508D+00
 Gap=     0.143 Goal=   None    Shift=    0.000
 RMSDP=8.02D-03 MaxDP=1.06D+00 DE=-3.89D-01 OVMax= 1.31D-01

 Cycle   4  Pass 1  IDiag  1:
 RMSU=  5.50D-03    CP:  9.62D-01  1.11D+00  5.15D-01
 E= -1431.24751693495     Delta-E=       -0.144872826176 Rises=F Damp=F
 DIIS: error= 5.51D-03 at cycle   4 NSaved=   4.
 NSaved= 4 IEnMin= 4 EnMin= -1431.24751693495     IErMin= 4 ErrMin= 5.51D-03
 ErrMax= 5.51D-03  0.00D+00 EMaxC= 1.00D-01 BMatC= 3.32D-02 BMatP= 1.81D-01
 IDIUse=3 WtCom= 9.45D-01 WtEn= 5.51D-02
 Coeff-Com: -0.148D+00 0.320D+00 0.318D+00 0.509D+00
 Coeff-En:   0.000D+00 0.000D+00 0.170D+00 0.830D+00
 Coeff:     -0.140D+00 0.303D+00 0.310D+00 0.527D+00
 Gap=     0.118 Goal=   None    Shift=    0.000
 RMSDP=3.38D-03 MaxDP=3.73D-01 DE=-1.45D-01 OVMax= 5.14D-02

 Cycle   5  Pass 1  IDiag  1:
 RMSU=  1.36D-03    CP:  9.29D-01  9.29D-01  6.62D-01  6.27D-01
 E= -1431.27410389315     Delta-E=       -0.026586958203 Rises=F Damp=F
 DIIS: error= 3.65D-03 at cycle   5 NSaved=   5.
 NSaved= 5 IEnMin= 5 EnMin= -1431.27410389315     IErMin= 5 ErrMin= 3.65D-03
 ErrMax= 3.65D-03  0.00D+00 EMaxC= 1.00D-01 BMatC= 4.33D-03 BMatP= 3.32D-02
 IDIUse=3 WtCom= 9.64D-01 WtEn= 3.65D-02
 Coeff-Com: -0.464D-01 0.859D-01 0.130D+00 0.337D+00 0.493D+00
 Coeff-En:   0.000D+00 0.000D+00 0.000D+00 0.999D-01 0.900D+00
 Coeff:     -0.447D-01 0.828D-01 0.125D+00 0.329D+00 0.508D+00
 Gap=     0.116 Goal=   None    Shift=    0.000
 RMSDP=8.09D-04 MaxDP=6.68D-02 DE=-2.66D-02 OVMax= 1.54D-02

 Cycle   6  Pass 1  IDiag  1:
 RMSU=  5.58D-04    CP:  9.19D-01  9.68D-01  6.44D-01  6.53D-01  9.52D-01
 E= -1431.27753679690     Delta-E=       -0.003432903750 Rises=F Damp=F
 DIIS: error= 1.06D-03 at cycle   6 NSaved=   6.
 NSaved= 6 IEnMin= 6 EnMin= -1431.27753679690     IErMin= 6 ErrMin= 1.06D-03
 ErrMax= 1.06D-03  0.00D+00 EMaxC= 1.00D-01 BMatC= 3.82D-04 BMatP= 4.33D-03
 IDIUse=3 WtCom= 9.89D-01 WtEn= 1.06D-02
 Coeff-Com: -0.102D-01 0.129D-01 0.278D-01 0.112D+00 0.290D+00 0.567D+00
 Coeff-En:   0.000D+00 0.000D+00 0.000D+00 0.000D+00 0.390D-01 0.961D+00
 Coeff:     -0.101D-01 0.128D-01 0.276D-01 0.110D+00 0.288D+00 0.572D+00
 Gap=     0.117 Goal=   None    Shift=    0.000
 RMSDP=3.04D-04 MaxDP=2.43D-02 DE=-3.43D-03 OVMax= 5.12D-03

 Cycle   7  Pass 1  IDiag  1:
 RMSU=  1.65D-04    CP:  9.23D-01  9.67D-01  6.44D-01  6.80D-01  9.36D-01
                    CP:  7.70D-01
 E= -1431.27782346945     Delta-E=       -0.000286672546 Rises=F Damp=F
 DIIS: error= 2.26D-04 at cycle   7 NSaved=   7.
 NSaved= 7 IEnMin= 7 EnMin= -1431.27782346945     IErMin= 7 ErrMin= 2.26D-04
 ErrMax= 2.26D-04  0.00D+00 EMaxC= 1.00D-01 BMatC= 4.14D-05 BMatP= 3.82D-04
 IDIUse=3 WtCom= 9.98D-01 WtEn= 2.26D-03
 Coeff-Com: -0.258D-02 0.142D-02 0.556D-02 0.391D-01 0.136D+00 0.347D+00
 Coeff-Com:  0.474D+00
 Coeff-En:   0.000D+00 0.000D+00 0.000D+00 0.000D+00 0.000D+00 0.282D-01
 Coeff-En:   0.972D+00
 Coeff:     -0.257D-02 0.142D-02 0.555D-02 0.390D-01 0.136D+00 0.346D+00
 Coeff:      0.475D+00
 Gap=     0.117 Goal=   None    Shift=    0.000
 RMSDP=8.43D-05 MaxDP=6.42D-03 DE=-2.87D-04 OVMax= 2.67D-03

 Cycle   8  Pass 1  IDiag  1:
 RMSU=  6.03D-05    CP:  9.23D-01  9.67D-01  6.47D-01  6.79D-01  9.12D-01
                    CP:  7.51D-01  7.86D-01
 E= -1431.27785492527     Delta-E=       -0.000031455822 Rises=F Damp=F
 DIIS: error= 1.87D-04 at cycle   8 NSaved=   8.
 NSaved= 8 IEnMin= 8 EnMin= -1431.27785492527     IErMin= 8 ErrMin= 1.87D-04
 ErrMax= 1.87D-04  0.00D+00 EMaxC= 1.00D-01 BMatC= 8.49D-06 BMatP= 4.14D-05
 IDIUse=3 WtCom= 9.98D-01 WtEn= 1.87D-03
 Coeff-Com: -0.265D-03-0.975D-03-0.500D-03 0.107D-01 0.550D-01 0.163D+00
 Coeff-Com:  0.329D+00 0.444D+00
 Coeff-En:   0.000D+00 0.000D+00 0.000D+00 0.000D+00 0.000D+00 0.000D+00
 Coeff-En:   0.131D+00 0.869D+00
 Coeff:     -0.265D-03-0.973D-03-0.499D-03 0.107D-01 0.549D-01 0.163D+00
 Coeff:      0.329D+00 0.445D+00
 Gap=     0.117 Goal=   None    Shift=    0.000
 RMSDP=2.49D-05 MaxDP=2.11D-03 DE=-3.15D-05 OVMax= 1.78D-03

 Cycle   9  Pass 1  IDiag  1:
 RMSU=  2.11D-05    CP:  9.23D-01  9.68D-01  6.46D-01  6.80D-01  9.15D-01
                    CP:  7.53D-01  7.90D-01  8.72D-01
 E= -1431.27786004948     Delta-E=       -0.000005124216 Rises=F Damp=F
 DIIS: error= 9.70D-05 at cycle   9 NSaved=   9.
 NSaved= 9 IEnMin= 9 EnMin= -1431.27786004948     IErMin= 9 ErrMin= 9.70D-05
 ErrMax= 9.70D-05  0.00D+00 EMaxC= 1.00D-01 BMatC= 2.16D-06 BMatP= 8.49D-06
 IDIUse=1 WtCom= 1.00D+00 WtEn= 0.00D+00
 Coeff-Com:  0.309D-03-0.855D-03-0.151D-02-0.876D-03 0.105D-01 0.412D-01
 Coeff-Com:  0.131D+00 0.343D+00 0.477D+00
 Coeff:      0.309D-03-0.855D-03-0.151D-02-0.876D-03 0.105D-01 0.412D-01
 Coeff:      0.131D+00 0.343D+00 0.477D+00
 Gap=     0.117 Goal=   None    Shift=    0.000
 RMSDP=1.55D-05 MaxDP=1.37D-03 DE=-5.12D-06 OVMax= 7.07D-04

 Cycle  10  Pass 1  IDiag  1:
 RMSU=  1.10D-05    CP:  9.23D-01  9.68D-01  6.46D-01  6.80D-01  9.20D-01
                    CP:  7.55D-01  8.14D-01  8.01D-01  8.55D-01
 E= -1431.27786159613     Delta-E=       -0.000001546641 Rises=F Damp=F
 DIIS: error= 1.63D-05 at cycle  10 NSaved=  10.
 NSaved=10 IEnMin=10 EnMin= -1431.27786159613     IErMin=10 ErrMin= 1.63D-05
 ErrMax= 1.63D-05  0.00D+00 EMaxC= 1.00D-01 BMatC= 2.14D-07 BMatP= 2.16D-06
 IDIUse=1 WtCom= 1.00D+00 WtEn= 0.00D+00
 Coeff-Com:  0.186D-03-0.334D-03-0.783D-03-0.167D-02 0.345D-03 0.671D-02
 Coeff-Com:  0.405D-01 0.161D+00 0.308D+00 0.486D+00
 Coeff:      0.186D-03-0.334D-03-0.783D-03-0.167D-02 0.345D-03 0.671D-02
 Coeff:      0.405D-01 0.161D+00 0.308D+00 0.486D+00
 Gap=     0.117 Goal=   None    Shift=    0.000
 RMSDP=6.28D-06 MaxDP=5.70D-04 DE=-1.55D-06 OVMax= 1.45D-04

 Cycle  11  Pass 1  IDiag  1:
 RMSU=  3.41D-06    CP:  9.23D-01  9.68D-01  6.46D-01  6.80D-01  9.19D-01
                    CP:  7.56D-01  8.14D-01  8.47D-01  8.49D-01  8.11D-01
 E= -1431.27786178461     Delta-E=       -0.000000188480 Rises=F Damp=F
 DIIS: error= 2.82D-06 at cycle  11 NSaved=  11.
 NSaved=11 IEnMin=11 EnMin= -1431.27786178461     IErMin=11 ErrMin= 2.82D-06
 ErrMax= 2.82D-06  0.00D+00 EMaxC= 1.00D-01 BMatC= 1.58D-08 BMatP= 2.14D-07
 IDIUse=1 WtCom= 1.00D+00 WtEn= 0.00D+00
 Coeff-Com:  0.886D-04-0.126D-03-0.273D-03-0.918D-03-0.145D-02-0.213D-02
 Coeff-Com:  0.341D-02 0.402D-01 0.104D+00 0.265D+00 0.592D+00
 Coeff:      0.886D-04-0.126D-03-0.273D-03-0.918D-03-0.145D-02-0.213D-02
 Coeff:      0.341D-02 0.402D-01 0.104D+00 0.265D+00 0.592D+00
 Gap=     0.117 Goal=   None    Shift=    0.000
 RMSDP=2.68D-06 MaxDP=2.50D-04 DE=-1.88D-07 OVMax= 3.29D-05

 Cycle  12  Pass 1  IDiag  1:
 RMSU=  1.57D-06    CP:  9.23D-01  9.68D-01  6.46D-01  6.80D-01  9.19D-01
                    CP:  7.56D-01  8.18D-01  8.53D-01  8.69D-01  7.94D-01
                    CP:  7.27D-01
 E= -1431.27786179763     Delta-E=       -0.000000013029 Rises=F Damp=F
 DIIS: error= 1.39D-06 at cycle  12 NSaved=  12.
 NSaved=12 IEnMin=12 EnMin= -1431.27786179763     IErMin=12 ErrMin= 1.39D-06
 ErrMax= 1.39D-06  0.00D+00 EMaxC= 1.00D-01 BMatC= 2.21D-09 BMatP= 1.58D-08
 IDIUse=1 WtCom= 1.00D+00 WtEn= 0.00D+00
 Coeff-Com:  0.206D-04-0.194D-04-0.556D-04-0.301D-03-0.805D-03-0.182D-02
 Coeff-Com: -0.271D-02 0.384D-02 0.221D-01 0.897D-01 0.331D+00 0.560D+00
 Coeff:      0.206D-04-0.194D-04-0.556D-04-0.301D-03-0.805D-03-0.182D-02
 Coeff:     -0.271D-02 0.384D-02 0.221D-01 0.897D-01 0.331D+00 0.560D+00
 Gap=     0.117 Goal=   None    Shift=    0.000
 RMSDP=6.23D-07 MaxDP=7.88D-05 DE=-1.30D-08 OVMax= 1.66D-05

 Cycle  13  Pass 1  IDiag  1:
 RMSU=  3.87D-07    CP:  9.23D-01  9.68D-01  6.46D-01  6.80D-01  9.19D-01
                    CP:  7.56D-01  8.19D-01  8.53D-01  8.69D-01  8.07D-01
                    CP:  7.87D-01  8.81D-01
 E= -1431.27786179930     Delta-E=       -0.000000001662 Rises=F Damp=F
 DIIS: error= 4.23D-07 at cycle  13 NSaved=  13.
 NSaved=13 IEnMin=13 EnMin= -1431.27786179930     IErMin=13 ErrMin= 4.23D-07
 ErrMax= 4.23D-07  0.00D+00 EMaxC= 1.00D-01 BMatC= 4.04D-10 BMatP= 2.21D-09
 IDIUse=1 WtCom= 1.00D+00 WtEn= 0.00D+00
 Coeff-Com:  0.119D-05 0.433D-05-0.275D-05-0.771D-04-0.332D-03-0.851D-03
 Coeff-Com: -0.214D-02-0.253D-02 0.932D-03 0.208D-01 0.126D+00 0.345D+00
 Coeff-Com:  0.513D+00
 Coeff:      0.119D-05 0.433D-05-0.275D-05-0.771D-04-0.332D-03-0.851D-03
 Coeff:     -0.214D-02-0.253D-02 0.932D-03 0.208D-01 0.126D+00 0.345D+00
 Coeff:      0.513D+00
 Gap=     0.117 Goal=   None    Shift=    0.000
 RMSDP=2.77D-07 MaxDP=3.15D-05 DE=-1.66D-09 OVMax= 5.59D-06

 Cycle  14  Pass 1  IDiag  1:
 RMSU=  2.05D-07    CP:  9.23D-01  9.68D-01  6.46D-01  6.80D-01  9.19D-01
                    CP:  7.56D-01  8.19D-01  8.53D-01  8.73D-01  8.10D-01
                    CP:  7.94D-01  8.82D-01  7.91D-01
 E= -1431.27786179954     Delta-E=       -0.000000000240 Rises=F Damp=F
 DIIS: error= 1.36D-07 at cycle  14 NSaved=  14.
 NSaved=14 IEnMin=14 EnMin= -1431.27786179954     IErMin=14 ErrMin= 1.36D-07
 ErrMax= 1.36D-07  0.00D+00 EMaxC= 1.00D-01 BMatC= 3.29D-11 BMatP= 4.04D-10
 IDIUse=1 WtCom= 1.00D+00 WtEn= 0.00D+00
 Coeff-Com: -0.195D-05 0.414D-05 0.483D-05-0.170D-05-0.735D-04-0.218D-03
 Coeff-Com: -0.852D-03-0.200D-02-0.263D-02-0.170D-02 0.204D-01 0.109D+00
 Coeff-Com:  0.273D+00 0.605D+00
 Coeff:     -0.195D-05 0.414D-05 0.483D-05-0.170D-05-0.735D-04-0.218D-03
 Coeff:     -0.852D-03-0.200D-02-0.263D-02-0.170D-02 0.204D-01 0.109D+00
 Coeff:      0.273D+00 0.605D+00
 Gap=     0.117 Goal=   None    Shift=    0.000
 RMSDP=7.53D-08 MaxDP=8.51D-06 DE=-2.40D-10 OVMax= 3.23D-06

 Cycle  15  Pass 1  IDiag  1:
 RMSU=  5.19D-08    CP:  9.23D-01  9.68D-01  6.46D-01  6.80D-01  9.19D-01
                    CP:  7.56D-01  8.19D-01  8.53D-01  8.73D-01  8.11D-01
                    CP:  7.97D-01  8.87D-01  8.16D-01  8.05D-01
 E= -1431.27786179958     Delta-E=       -0.000000000046 Rises=F Damp=F
 DIIS: error= 6.80D-08 at cycle  15 NSaved=  15.
 NSaved=15 IEnMin=15 EnMin= -1431.27786179958     IErMin=15 ErrMin= 6.80D-08
 ErrMax= 6.80D-08  0.00D+00 EMaxC= 1.00D-01 BMatC= 6.69D-12 BMatP= 3.29D-11
 IDIUse=1 WtCom= 1.00D+00 WtEn= 0.00D+00
 Coeff-Com: -0.139D-05 0.223D-05 0.259D-05 0.609D-05-0.946D-05-0.396D-04
 Coeff-Com: -0.276D-03-0.851D-03-0.148D-02-0.300D-02-0.131D-02 0.290D-01
 Coeff-Com:  0.107D+00 0.378D+00 0.493D+00
 Coeff:     -0.139D-05 0.223D-05 0.259D-05 0.609D-05-0.946D-05-0.396D-04
 Coeff:     -0.276D-03-0.851D-03-0.148D-02-0.300D-02-0.131D-02 0.290D-01
 Coeff:      0.107D+00 0.378D+00 0.493D+00
 Gap=     0.117 Goal=   None    Shift=    0.000
 RMSDP=3.49D-08 MaxDP=3.08D-06 DE=-4.64D-11 OVMax= 9.89D-07

 Cycle  16  Pass 1  IDiag  1:
 RMSU=  1.97D-08    CP:  9.23D-01  9.68D-01  6.46D-01  6.80D-01  9.19D-01
                    CP:  7.56D-01  8.19D-01  8.53D-01  8.73D-01  8.11D-01
                    CP:  7.99D-01  8.96D-01  8.25D-01  8.53D-01  7.90D-01
 E= -1431.27786179962     Delta-E=       -0.000000000040 Rises=F Damp=F
 DIIS: error= 1.59D-08 at cycle  16 NSaved=  16.
 NSaved=16 IEnMin=16 EnMin= -1431.27786179962     IErMin=16 ErrMin= 1.59D-08
 ErrMax= 1.59D-08  0.00D+00 EMaxC= 1.00D-01 BMatC= 4.80D-13 BMatP= 6.69D-12
 IDIUse=1 WtCom= 1.00D+00 WtEn= 0.00D+00
 Coeff-Com: -0.520D-06 0.755D-06 0.483D-06 0.291D-05 0.384D-05 0.610D-05
 Coeff-Com: -0.318D-04-0.149D-03-0.336D-03-0.120D-02-0.325D-02 0.143D-02
 Coeff-Com:  0.176D-01 0.121D+00 0.252D+00 0.613D+00
 Coeff:     -0.520D-06 0.755D-06 0.483D-06 0.291D-05 0.384D-05 0.610D-05
 Coeff:     -0.318D-04-0.149D-03-0.336D-03-0.120D-02-0.325D-02 0.143D-02
 Coeff:      0.176D-01 0.121D+00 0.252D+00 0.613D+00
 Gap=     0.117 Goal=   None    Shift=    0.000
 RMSDP=1.26D-08 MaxDP=1.33D-06 DE=-4.00D-11 OVMax= 3.41D-07

 Cycle  17  Pass 1  IDiag  1:
 RMSU=  6.52D-09    CP:  9.23D-01  9.68D-01  6.46D-01  6.80D-01  9.19D-01
                    CP:  7.56D-01  8.19D-01  8.54D-01  8.73D-01  8.10D-01
                    CP:  7.99D-01  8.98D-01  8.29D-01  8.57D-01  8.18D-01
                    CP:  7.91D-01
 E= -1431.27786179961     Delta-E=        0.000000000010 Rises=F Damp=F
 DIIS: error= 7.33D-09 at cycle  17 NSaved=  17.
 NSaved=17 IEnMin=16 EnMin= -1431.27786179962     IErMin=17 ErrMin= 7.33D-09
 ErrMax= 7.33D-09  0.00D+00 EMaxC= 1.00D-01 BMatC= 8.81D-14 BMatP= 4.80D-13
 IDIUse=1 WtCom= 1.00D+00 WtEn= 0.00D+00
 Coeff-Com: -0.170D-06 0.208D-06-0.239D-07 0.120D-05 0.371D-05 0.878D-05
 Coeff-Com:  0.122D-04 0.383D-05-0.447D-04-0.421D-03-0.201D-02-0.266D-02
 Coeff-Com: -0.313D-02 0.279D-01 0.832D-01 0.357D+00 0.540D+00
 Coeff:     -0.170D-06 0.208D-06-0.239D-07 0.120D-05 0.371D-05 0.878D-05
 Coeff:      0.122D-04 0.383D-05-0.447D-04-0.421D-03-0.201D-02-0.266D-02
 Coeff:     -0.313D-02 0.279D-01 0.832D-01 0.357D+00 0.540D+00
 Gap=     0.117 Goal=   None    Shift=    0.000
 RMSDP=4.41D-09 MaxDP=4.54D-07 DE= 1.00D-11 OVMax= 8.47D-08

 Error on total polarization charges =  0.03440
 SCF Done:  E(RB3LYP) =  -1431.27786180     A.U. after   17 cycles
            NFock= 17  Conv=0.44D-08     -V/T= 2.0043
 KE= 1.425170595976D+03 PE=-9.706349959822D+03 EE= 3.649649078861D+03
 Leave Link  502 at Fri Mar 21 16:58:18 2025, MaxMem=  3758096384 cpu:            8952.6 elap:             564.7
 (Enter /cm/shared/apps/spack/cpu/opt/spack/linux-centos8-zen/gcc-8.3.1/gaussian-16.C.01-po5bqktfeugvmjyga3v7eigbecnokxng/g16/l601.exe)
 Copying SCF densities to generalized density rwf, IOpCl= 0 IROHF=0.

 **********************************************************************

            Population analysis using the SCF Density.

 **********************************************************************

 Orbital symmetries:
       Occupied  (A) (A) (A) (A) (A) (A) (A) (A) (A) (A) (A) (A)
                 (A) (A) (A) (A) (A) (A) (A) (A) (A) (A) (A) (A)
                 (A) (A) (A) (A) (A) (A) (A) (A) (A) (A) (A) (A)
                 (A) (A) (A) (A) (A) (A) (A) (A) (A) (A) (A) (A)
                 (A) (A) (A) (A) (A) (A) (A) (A) (A) (A) (A) (A)
                 (A) (A) (A) (A) (A) (A) (A) (A) (A) (A) (A) (A)
                 (A) (A) (A) (A) (A) (A) (A) (A) (A) (A) (A) (A)
                 (A) (A) (A) (A) (A) (A) (A) (A) (A) (A) (A) (A)
                 (A) (A) (A) (A) (A) (A) (A) (A) (A) (A) (A) (A)
                 (A) (A) (A) (A)
       Virtual   (A) (A) (A) (A) (A) (A) (A) (A) (A) (A) (A) (A)
                 (A) (A) (A) (A) (A) (A) (A) (A) (A) (A) (A) (A)
                 (A) (A) (A) (A) (A) (A) (A) (A) (A) (A) (A) (A)
                 (A) (A) (A) (A) (A) (A) (A) (A) (A) (A) (A) (A)
                 (A) (A) (A) (A) (A) (A) (A) (A) (A) (A) (A) (A)
                 (A) (A) (A) (A) (A) (A) (A) (A) (A) (A) (A) (A)
                 (A) (A) (A) (A) (A) (A) (A) (A) (A) (A) (A) (A)
                 (A) (A) (A) (A) (A) (A) (A) (A) (A) (A) (A) (A)
                 (A) (A) (A) (A) (A) (A) (A) (A) (A) (A) (A) (A)
                 (A) (A) (A) (A) (A) (A) (A) (A) (A) (A) (A) (A)
                 (A) (A) (A) (A) (A) (A) (A) (A) (A) (A) (A) (A)
                 (A) (A) (A) (A) (A) (A) (A) (A) (A) (A) (A) (A)
                 (A) (A) (A) (A) (A) (A) (A) (A) (A) (A) (A) (A)
                 (A) (A) (A) (A) (A) (A) (A) (A) (A) (A) (A) (A)
                 (A) (A) (A) (A) (A) (A) (A) (A) (A) (A) (A) (A)
                 (A) (A) (A) (A) (A) (A) (A) (A) (A) (A) (A) (A)
                 (A) (A) (A) (A) (A) (A) (A) (A) (A) (A) (A) (A)
                 (A) (A) (A) (A) (A) (A) (A) (A) (A) (A) (A) (A)
                 (A) (A) (A) (A) (A) (A) (A) (A) (A) (A) (A) (A)
                 (A) (A) (A) (A) (A) (A) (A) (A) (A) (A) (A) (A)
                 (A) (A) (A) (A) (A) (A) (A) (A) (A) (A) (A) (A)
                 (A) (A) (A) (A) (A) (A) (A) (A) (A) (A) (A) (A)
                 (A) (A) (A) (A) (A) (A) (A) (A) (A) (A) (A) (A)
                 (A) (A) (A) (A) (A) (A) (A) (A) (A) (A) (A) (A)
                 (A) (A) (A) (A) (A) (A) (A) (A) (A) (A) (A) (A)
                 (A) (A) (A) (A) (A) (A) (A) (A) (A) (A) (A) (A)
                 (A) (A) (A) (A) (A) (A) (A) (A) (A) (A) (A) (A)
                 (A) (A) (A) (A) (A) (A) (A) (A) (A) (A) (A) (A)
                 (A) (A) (A) (A) (A) (A) (A) (A) (A) (A) (A) (A)
                 (A) (A) (A) (A) (A) (A) (A) (A) (A) (A) (A) (A)
                 (A) (A) (A) (A) (A) (A) (A) (A) (A) (A) (A) (A)
                 (A) (A) (A) (A) (A) (A) (A) (A) (A) (A) (A) (A)
                 (A) (A) (A) (A) (A) (A) (A) (A) (A) (A) (A) (A)
                 (A) (A) (A) (A) (A) (A) (A) (A) (A) (A) (A) (A)
                 (A) (A) (A) (A) (A) (A) (A) (A) (A) (A) (A) (A)
                 (A) (A) (A) (A) (A) (A) (A) (A) (A) (A) (A) (A)
                 (A) (A) (A) (A) (A) (A) (A) (A) (A) (A) (A) (A)
                 (A) (A) (A) (A) (A) (A) (A) (A) (A) (A) (A) (A)
                 (A) (A) (A) (A) (A) (A) (A) (A) (A) (A) (A) (A)
                 (A) (A) (A) (A) (A) (A) (A) (A) (A) (A) (A) (A)
                 (A) (A) (A) (A) (A) (A) (A) (A) (A) (A) (A) (A)
                 (A) (A) (A) (A) (A) (A) (A) (A) (A) (A) (A) (A)
                 (A) (A) (A) (A) (A) (A) (A) (A) (A) (A) (A) (A)
                 (A) (A) (A) (A) (A) (A) (A) (A) (A) (A) (A) (A)
                 (A) (A) (A) (A) (A) (A) (A) (A) (A) (A) (A) (A)
                 (A) (A) (A) (A) (A) (A) (A) (A) (A) (A) (A) (A)
                 (A) (A) (A) (A) (A) (A) (A) (A) (A) (A) (A) (A)
                 (A) (A) (A) (A) (A) (A) (A) (A) (A) (A) (A) (A)
                 (A) (A) (A) (A) (A) (A) (A) (A) (A) (A) (A) (A)
                 (A) (A) (A) (A) (A) (A) (A) (A) (A) (A) (A) (A)
                 (A) (A) (A) (A) (A) (A) (A) (A) (A) (A) (A) (A)
                 (A) (A) (A) (A) (A) (A) (A) (A) (A) (A) (A) (A)
                 (A) (A) (A) (A) (A) (A) (A) (A) (A) (A) (A) (A)
                 (A) (A) (A) (A) (A) (A) (A) (A) (A) (A) (A) (A)
                 (A) (A) (A) (A) (A) (A) (A) (A) (A) (A) (A) (A)
                 (A) (A) (A) (A) (A) (A) (A) (A) (A) (A) (A) (A)
                 (A) (A) (A) (A) (A) (A) (A) (A) (A) (A) (A) (A)
                 (A) (A) (A) (A) (A) (A) (A) (A) (A) (A) (A) (A)
                 (A) (A) (A) (A) (A) (A) (A) (A) (A) (A) (A) (A)
                 (A) (A) (A) (A) (A) (A) (A) (A) (A) (A) (A) (A)
                 (A) (A) (A) (A) (A) (A) (A) (A) (A) (A) (A) (A)
                 (A) (A) (A) (A) (A)
 The electronic state is 1-A.
 Alpha  occ. eigenvalues --  -19.28018 -19.21849 -19.20449 -19.20431 -14.59919
 Alpha  occ. eigenvalues --  -14.48707 -14.42586 -10.43722 -10.34613 -10.32786
 Alpha  occ. eigenvalues --  -10.30279 -10.29013 -10.28618 -10.27218 -10.26910
 Alpha  occ. eigenvalues --  -10.25942 -10.25748 -10.25696 -10.25513 -10.25407
 Alpha  occ. eigenvalues --  -10.25325 -10.25323 -10.25239 -10.24792 -10.24606
 Alpha  occ. eigenvalues --  -10.24604 -10.24439 -10.23687 -10.22947 -10.22900
 Alpha  occ. eigenvalues --  -10.22652 -10.22076  -1.27736  -1.22918  -1.14331
 Alpha  occ. eigenvalues --   -1.10452  -1.06352  -1.04983  -0.95127  -0.94436
 Alpha  occ. eigenvalues --   -0.90665  -0.90186  -0.88181  -0.87052  -0.83506
 Alpha  occ. eigenvalues --   -0.83295  -0.82476  -0.81436  -0.79880  -0.79222
 Alpha  occ. eigenvalues --   -0.78400  -0.73562  -0.72861  -0.71255  -0.69846
 Alpha  occ. eigenvalues --   -0.68827  -0.67663  -0.67467  -0.66421  -0.63953
 Alpha  occ. eigenvalues --   -0.63861  -0.62892  -0.61106  -0.60607  -0.60166
 Alpha  occ. eigenvalues --   -0.58833  -0.58513  -0.58373  -0.57259  -0.56701
 Alpha  occ. eigenvalues --   -0.55557  -0.54458  -0.54151  -0.53795  -0.53021
 Alpha  occ. eigenvalues --   -0.52666  -0.52256  -0.50985  -0.50719  -0.50701
 Alpha  occ. eigenvalues --   -0.49982  -0.49797  -0.49634  -0.49164  -0.48696
 Alpha  occ. eigenvalues --   -0.47842  -0.47650  -0.47013  -0.46279  -0.46146
 Alpha  occ. eigenvalues --   -0.45733  -0.44818  -0.43857  -0.43363  -0.42681
 Alpha  occ. eigenvalues --   -0.42593  -0.42070  -0.41549  -0.41030  -0.39882
 Alpha  occ. eigenvalues --   -0.39438  -0.38981  -0.36400  -0.36361  -0.34523
 Alpha  occ. eigenvalues --   -0.34352  -0.34051  -0.33495  -0.32594  -0.32409
 Alpha  occ. eigenvalues --   -0.29083  -0.27558
 Alpha virt. eigenvalues --   -0.15883  -0.14627  -0.10324  -0.08926  -0.08588
 Alpha virt. eigenvalues --   -0.08313  -0.06478  -0.05717  -0.04768  -0.04484
 Alpha virt. eigenvalues --   -0.04376  -0.03777  -0.03685  -0.03223  -0.02853
 Alpha virt. eigenvalues --   -0.02429  -0.02239  -0.01551  -0.01282  -0.01155
 Alpha virt. eigenvalues --   -0.00663  -0.00512   0.00157   0.00393   0.00895
 Alpha virt. eigenvalues --    0.01045   0.01243   0.01471   0.01859   0.02193
 Alpha virt. eigenvalues --    0.02496   0.02710   0.03025   0.03133   0.03827
 Alpha virt. eigenvalues --    0.04473   0.04620   0.04759   0.04837   0.05039
 Alpha virt. eigenvalues --    0.05159   0.05732   0.06039   0.06369   0.06529
 Alpha virt. eigenvalues --    0.06646   0.06815   0.07111   0.07457   0.07585
 Alpha virt. eigenvalues --    0.07636   0.07786   0.07852   0.07951   0.08328
 Alpha virt. eigenvalues --    0.08474   0.08603   0.08687   0.08828   0.09047
 Alpha virt. eigenvalues --    0.09291   0.09316   0.09476   0.09600   0.09718
 Alpha virt. eigenvalues --    0.09886   0.10328   0.10478   0.10602   0.10797
 Alpha virt. eigenvalues --    0.10862   0.11048   0.11151   0.11599   0.11723
 Alpha virt. eigenvalues --    0.12013   0.12119   0.12265   0.12330   0.12478
 Alpha virt. eigenvalues --    0.12717   0.13056   0.13116   0.13332   0.13529
 Alpha virt. eigenvalues --    0.13857   0.14069   0.14157   0.14333   0.14560
 Alpha virt. eigenvalues --    0.14707   0.14979   0.15018   0.15311   0.15402
 Alpha virt. eigenvalues --    0.15724   0.15919   0.16062   0.16237   0.16502
 Alpha virt. eigenvalues --    0.16704   0.16959   0.17048   0.17326   0.17672
 Alpha virt. eigenvalues --    0.17862   0.17946   0.18116   0.18488   0.18617
 Alpha virt. eigenvalues --    0.18944   0.19120   0.19258   0.19551   0.19638
 Alpha virt. eigenvalues --    0.19930   0.20168   0.20350   0.20382   0.20709
 Alpha virt. eigenvalues --    0.21250   0.21492   0.21595   0.21667   0.21788
 Alpha virt. eigenvalues --    0.22057   0.22357   0.22638   0.22760   0.23033
 Alpha virt. eigenvalues --    0.23180   0.23413   0.23598   0.23743   0.23928
 Alpha virt. eigenvalues --    0.24338   0.24445   0.24707   0.25211   0.25394
 Alpha virt. eigenvalues --    0.25415   0.25691   0.25877   0.26009   0.26268
 Alpha virt. eigenvalues --    0.26364   0.26642   0.27116   0.27282   0.27384
 Alpha virt. eigenvalues --    0.27578   0.27767   0.28075   0.28266   0.28335
 Alpha virt. eigenvalues --    0.28627   0.28898   0.29221   0.29400   0.29487
 Alpha virt. eigenvalues --    0.29659   0.30048   0.30240   0.30400   0.30536
 Alpha virt. eigenvalues --    0.30754   0.30980   0.31438   0.31581   0.31735
 Alpha virt. eigenvalues --    0.32100   0.32316   0.32427   0.32735   0.33094
 Alpha virt. eigenvalues --    0.33129   0.33491   0.33963   0.34028   0.34409
 Alpha virt. eigenvalues --    0.34921   0.35037   0.35947   0.36286   0.36461
 Alpha virt. eigenvalues --    0.36810   0.37273   0.37622   0.37977   0.38359
 Alpha virt. eigenvalues --    0.38513   0.39103   0.39358   0.39857   0.40477
 Alpha virt. eigenvalues --    0.40888   0.41256   0.41732   0.42510   0.42775
 Alpha virt. eigenvalues --    0.44141   0.44965   0.45949   0.46728   0.47436
 Alpha virt. eigenvalues --    0.47624   0.48718   0.49294   0.49467   0.49731
 Alpha virt. eigenvalues --    0.49834   0.50184   0.51018   0.51392   0.51559
 Alpha virt. eigenvalues --    0.51889   0.52020   0.52267   0.52754   0.53155
 Alpha virt. eigenvalues --    0.53583   0.54055   0.54183   0.54665   0.55506
 Alpha virt. eigenvalues --    0.55526   0.55931   0.56216   0.56505   0.57044
 Alpha virt. eigenvalues --    0.57668   0.57923   0.58391   0.58600   0.59005
 Alpha virt. eigenvalues --    0.59138   0.59668   0.60075   0.60366   0.60785
 Alpha virt. eigenvalues --    0.61013   0.61331   0.61866   0.62356   0.62745
 Alpha virt. eigenvalues --    0.63288   0.63491   0.63612   0.64284   0.64569
 Alpha virt. eigenvalues --    0.65299   0.65407   0.65909   0.66326   0.66678
 Alpha virt. eigenvalues --    0.66826   0.67553   0.68087   0.68371   0.68829
 Alpha virt. eigenvalues --    0.68915   0.69414   0.69705   0.70003   0.70274
 Alpha virt. eigenvalues --    0.70896   0.71253   0.71785   0.72097   0.72591
 Alpha virt. eigenvalues --    0.73063   0.73397   0.73590   0.73699   0.74137
 Alpha virt. eigenvalues --    0.74847   0.75354   0.75378   0.76109   0.76609
 Alpha virt. eigenvalues --    0.77114   0.77346   0.77511   0.78277   0.78660
 Alpha virt. eigenvalues --    0.78665   0.78863   0.79616   0.79941   0.80205
 Alpha virt. eigenvalues --    0.80902   0.81603   0.82412   0.82556   0.82991
 Alpha virt. eigenvalues --    0.83204   0.83648   0.84439   0.85001   0.85310
 Alpha virt. eigenvalues --    0.85661   0.86387   0.86882   0.87176   0.87543
 Alpha virt. eigenvalues --    0.87857   0.88425   0.89033   0.89978   0.90380
 Alpha virt. eigenvalues --    0.90658   0.91348   0.91651   0.92283   0.92618
 Alpha virt. eigenvalues --    0.93691   0.93941   0.94550   0.95084   0.95403
 Alpha virt. eigenvalues --    0.96027   0.96520   0.97196   0.97470   0.98062
 Alpha virt. eigenvalues --    0.98806   0.99278   0.99339   0.99960   1.00964
 Alpha virt. eigenvalues --    1.01476   1.02133   1.02542   1.03258   1.03812
 Alpha virt. eigenvalues --    1.04393   1.04807   1.05111   1.05893   1.06528
 Alpha virt. eigenvalues --    1.06912   1.07234   1.07729   1.08172   1.08501
 Alpha virt. eigenvalues --    1.09478   1.10410   1.10610   1.11318   1.12080
 Alpha virt. eigenvalues --    1.12226   1.12948   1.14265   1.15522   1.16312
 Alpha virt. eigenvalues --    1.16663   1.17196   1.18276   1.18413   1.19589
 Alpha virt. eigenvalues --    1.19627   1.20427   1.21531   1.21923   1.23355
 Alpha virt. eigenvalues --    1.23722   1.25640   1.25660   1.26697   1.27684
 Alpha virt. eigenvalues --    1.28566   1.29012   1.29175   1.30236   1.32102
 Alpha virt. eigenvalues --    1.33333   1.33790   1.34105   1.36344   1.37434
 Alpha virt. eigenvalues --    1.38137   1.39575   1.40636   1.42616   1.42996
 Alpha virt. eigenvalues --    1.43284   1.43942   1.45650   1.45781   1.46304
 Alpha virt. eigenvalues --    1.46832   1.47258   1.47437   1.47646   1.48347
 Alpha virt. eigenvalues --    1.48902   1.50336   1.50723   1.51216   1.52148
 Alpha virt. eigenvalues --    1.52295   1.52443   1.52607   1.53101   1.53304
 Alpha virt. eigenvalues --    1.53752   1.54377   1.54863   1.55077   1.55330
 Alpha virt. eigenvalues --    1.56712   1.56812   1.57712   1.58989   1.59561
 Alpha virt. eigenvalues --    1.60717   1.61791   1.61909   1.62933   1.63289
 Alpha virt. eigenvalues --    1.64020   1.64385   1.65012   1.65728   1.65779
 Alpha virt. eigenvalues --    1.66165   1.66982   1.68202   1.68929   1.69297
 Alpha virt. eigenvalues --    1.69700   1.70227   1.71117   1.71664   1.72295
 Alpha virt. eigenvalues --    1.72723   1.72994   1.73138   1.73550   1.74429
 Alpha virt. eigenvalues --    1.74765   1.75923   1.76218   1.76856   1.77671
 Alpha virt. eigenvalues --    1.78783   1.79966   1.80383   1.80852   1.81290
 Alpha virt. eigenvalues --    1.81666   1.82015   1.82905   1.83391   1.84061
 Alpha virt. eigenvalues --    1.84234   1.84998   1.86006   1.86108   1.86491
 Alpha virt. eigenvalues --    1.87172   1.88088   1.88707   1.88869   1.89389
 Alpha virt. eigenvalues --    1.90018   1.90544   1.91382   1.91778   1.91969
 Alpha virt. eigenvalues --    1.92263   1.92491   1.93074   1.93709   1.93837
 Alpha virt. eigenvalues --    1.95228   1.95911   1.96874   1.97441   1.98017
 Alpha virt. eigenvalues --    1.98459   1.99049   1.99684   2.00053   2.01272
 Alpha virt. eigenvalues --    2.02196   2.02701   2.03082   2.03402   2.04147
 Alpha virt. eigenvalues --    2.04704   2.05484   2.06049   2.06965   2.07914
 Alpha virt. eigenvalues --    2.09209   2.12584   2.13122   2.13850   2.14105
 Alpha virt. eigenvalues --    2.15850   2.16724   2.17840   2.18775   2.20263
 Alpha virt. eigenvalues --    2.21043   2.22334   2.23000   2.23625   2.25219
 Alpha virt. eigenvalues --    2.26059   2.26858   2.27810   2.28403   2.29243
 Alpha virt. eigenvalues --    2.32174   2.35000   2.35794   2.36299   2.38252
 Alpha virt. eigenvalues --    2.38743   2.39668   2.40795   2.41272   2.42760
 Alpha virt. eigenvalues --    2.43527   2.44049   2.44740   2.45219   2.45425
 Alpha virt. eigenvalues --    2.45762   2.46766   2.47175   2.48509   2.49360
 Alpha virt. eigenvalues --    2.51072   2.51375   2.52737   2.54210   2.56576
 Alpha virt. eigenvalues --    2.57760   2.57881   2.58664   2.59873   2.60157
 Alpha virt. eigenvalues --    2.61503   2.62142   2.63084   2.64101   2.64174
 Alpha virt. eigenvalues --    2.65355   2.66079   2.67146   2.67982   2.68923
 Alpha virt. eigenvalues --    2.69132   2.69309   2.69808   2.70554   2.70627
 Alpha virt. eigenvalues --    2.71409   2.71702   2.72547   2.73063   2.73297
 Alpha virt. eigenvalues --    2.73819   2.74285   2.74925   2.75307   2.75589
 Alpha virt. eigenvalues --    2.76054   2.76675   2.76890   2.77978   2.78256
 Alpha virt. eigenvalues --    2.78535   2.78996   2.79669   2.80107   2.80672
 Alpha virt. eigenvalues --    2.80939   2.81353   2.82234   2.82736   2.83233
 Alpha virt. eigenvalues --    2.84680   2.84804   2.85385   2.86872   2.86951
 Alpha virt. eigenvalues --    2.87549   2.88054   2.88901   2.89261   2.89837
 Alpha virt. eigenvalues --    2.90227   2.91187   2.91933   2.93113   2.93469
 Alpha virt. eigenvalues --    2.94984   2.95401   2.96511   2.99335   2.99834
 Alpha virt. eigenvalues --    3.00499   3.02084   3.02691   3.03837   3.04075
 Alpha virt. eigenvalues --    3.04688   3.06697   3.07188   3.07541   3.08689
 Alpha virt. eigenvalues --    3.09816   3.11750   3.14489   3.15863   3.17414
 Alpha virt. eigenvalues --    3.18645   3.19508   3.22093   3.23766   3.24664
 Alpha virt. eigenvalues --    3.26174   3.26601   3.27743   3.29271   3.30983
 Alpha virt. eigenvalues --    3.31212   3.32398   3.33931   3.36405   3.37383
 Alpha virt. eigenvalues --    3.38945   3.39609   3.41755   3.43549   3.44560
 Alpha virt. eigenvalues --    3.46485   3.49697   3.50549   3.50893   3.52064
 Alpha virt. eigenvalues --    3.53058   3.54671   3.56670   3.57063   3.58418
 Alpha virt. eigenvalues --    3.60269   3.61078   3.62768   3.63653   3.64348
 Alpha virt. eigenvalues --    3.70394   3.73420   3.75489   3.77073   3.79039
 Alpha virt. eigenvalues --    3.79331   3.81022   3.84636   3.87931   3.92053
 Alpha virt. eigenvalues --    3.94314   3.95680   3.96437   3.98217   3.99412
 Alpha virt. eigenvalues --    3.99865   4.06042   4.07562   4.09376   4.11038
 Alpha virt. eigenvalues --    4.11647   4.12476   4.15319   4.15814   4.16613
 Alpha virt. eigenvalues --    4.22824   4.26689   4.36585   4.48765   4.49642
 Alpha virt. eigenvalues --    4.64900   4.68818   4.76655   4.77653   4.78281
 Alpha virt. eigenvalues --    4.79297   4.88781   4.95230   4.97744   5.04222
 Alpha virt. eigenvalues --    5.07536   5.08656   5.13690   5.15154   5.20551
 Alpha virt. eigenvalues --    5.38782   5.67755   5.71341   5.90141   6.21185
 Alpha virt. eigenvalues --   23.55378  23.57462  23.65588  23.77578  23.79453
 Alpha virt. eigenvalues --   23.81146  23.81826  23.87647  23.88551  23.89503
 Alpha virt. eigenvalues --   23.90800  23.92515  23.93904  23.95617  23.96502
 Alpha virt. eigenvalues --   23.98219  23.98828  24.00771  24.03488  24.04204
 Alpha virt. eigenvalues --   24.04589  24.06560  24.11822  24.12257  24.13866
 Alpha virt. eigenvalues --   35.36420  35.48445  35.62042  49.85804  49.87655
 Alpha virt. eigenvalues --   49.95410  49.95912
          Condensed to atoms (all electrons):
 Mulliken charges:
               1
     1  C    1.615328
     2  C   -0.709424
     3  C   -0.638792
     4  C   -0.300753
     5  C   -0.277520
     6  C   -0.542741
     7  C    0.717892
     8  C   -0.569514
     9  H    0.177670
    10  H    0.198093
    11  H    0.197323
    12  H    0.150757
    13  N    0.143165
    14  H    0.336976
    15  C    0.046638
    16  C   -0.717974
    17  C   -0.130799
    18  N    0.110965
    19  H    0.197238
    20  H    0.239088
    21  H    0.252335
    22  H    0.230388
    23  C   -0.412612
    24  O   -0.073636
    25  O    0.178894
    26  H    0.349692
    27  C    0.140976
    28  C    0.183862
    29  C   -0.163596
    30  C   -0.120866
    31  H    0.251589
    32  C   -0.355133
    33  H    0.206329
    34  C   -0.054602
    35  H    0.284131
    36  H    0.284752
    37  N   -0.220126
    38  O   -0.000676
    39  O    0.000620
    40  C   -0.541200
    41  C    0.312509
    42  C   -0.254201
    43  C   -0.598211
    44  C   -0.463992
    45  H    0.204071
    46  C   -0.273999
    47  H    0.247990
    48  C   -0.149666
    49  H    0.227142
    50  H    0.219225
    51  H    0.198037
    52  H    0.208836
    53  H    0.235932
    54  H    0.221588
 Sum of Mulliken charges =   1.00000
 Mulliken charges with hydrogens summed into heavy atoms:
               1
     1  C    1.615328
     2  C   -0.709424
     3  C   -0.461122
     4  C   -0.102659
     5  C   -0.080197
     6  C   -0.391984
     7  C    0.717892
     8  C   -0.569514
    13  N    0.480141
    15  C    0.046638
    16  C   -0.281648
    17  C    0.351924
    18  N    0.460657
    23  C   -0.412612
    24  O   -0.073636
    25  O    0.178894
    27  C    0.140976
    28  C    0.435451
    29  C    0.042733
    30  C    0.163265
    32  C   -0.070381
    34  C   -0.054602
    37  N   -0.220126
    38  O   -0.000676
    39  O    0.000620
    40  C    0.125156
    41  C    0.312509
    42  C   -0.050130
    43  C   -0.350220
    44  C   -0.236850
    46  C   -0.054774
    48  C    0.048371
 Electronic spatial extent (au):  <R**2>=          15053.8838
 Charge=              1.0000 electrons
 Dipole moment (field-independent basis, Debye):
    X=            -10.0275    Y=              2.9604    Z=              0.3845  Tot=             10.4625
 Quadrupole moment (field-independent basis, Debye-Ang):
   XX=           -185.4792   YY=           -160.4177   ZZ=           -163.1156
   XY=              6.1719   XZ=             10.1724   YZ=             -3.8202
 Traceless Quadrupole moment (field-independent basis, Debye-Ang):
   XX=            -15.8084   YY=              9.2531   ZZ=              6.5552
   XY=              6.1719   XZ=             10.1724   YZ=             -3.8202
 Octapole moment (field-independent basis, Debye-Ang**2):
  XXX=           -432.7497  YYY=              7.8561  ZZZ=              7.7511  XYY=            -72.2910
  XXY=             63.1789  XXZ=            -34.0313  XZZ=              7.9859  YZZ=             21.5724
  YYZ=              5.2227  XYZ=             10.4844
 Hexadecapole moment (field-independent basis, Debye-Ang**3):
 XXXX=         -17746.2251 YYYY=          -2630.3543 ZZZZ=          -1804.1087 XXXY=            892.2304
 XXXZ=            495.3813 YYYX=             15.4701 YYYZ=            -38.4372 ZZZX=             34.8040
 ZZZY=             25.4378 XXYY=          -2844.1611 XXZZ=          -2745.4505 YYZZ=           -713.2839
 XXYZ=            -78.8099 YYXZ=             23.7841 ZZXY=            -54.9080
 N-N= 3.200252423185D+03 E-N=-9.706349958099D+03  KE= 1.425170595976D+03
 No NMR shielding tensors so no spin-rotation constants.
 Leave Link  601 at Fri Mar 21 16:58:19 2025, MaxMem=  3758096384 cpu:               7.8 elap:               0.6
 (Enter /cm/shared/apps/spack/cpu/opt/spack/linux-centos8-zen/gcc-8.3.1/gaussian-16.C.01-po5bqktfeugvmjyga3v7eigbecnokxng/g16/l607.exe)
 ******************************Gaussian NBO Version 3.1******************************
             N A T U R A L   A T O M I C   O R B I T A L   A N D
          N A T U R A L   B O N D   O R B I T A L   A N A L Y S I S
 ******************************Gaussian NBO Version 3.1******************************
       /RESON  / : Allow strongly delocalized NBO set

 Analyzing the SCF density

 Job title: reactant fragmant from S15                                      

 Storage needed:   2218152 in NPA,   2950168 in NBO (3758081264 available)
 GSVD:  LWork=      248100 too small for GESVD, short by      723600 words or      723600 for optimal perf.
 Remove ICRem=  163 ICRemI=  136 L=1 PNAO number  171 atom    8 type 153 NPNAO=  858
   due to symmetric orthogonalization 2, value= 0.00D+00.
 Remove ICRem=  163 ICRemI=  136 L=1 PNAO number  167 atom    8 type 152 NPNAO=  857
   due to symmetric orthogonalization 2, value= 0.00D+00.
 Remove ICRem=  163 ICRemI=  136 L=1 PNAO number  163 atom    8 type 151 NPNAO=  856
   due to symmetric orthogonalization 2, value= 0.00D+00.
 GSVD:  LWork=      254010 too small for GESVD, short by      705897 words or      705897 for optimal perf.
 Remove ICRem=  196 ICRemI=    4 L=0 PNAO number  196 atom   12 type  51 NPNAO=  855
   due to symmetric orthogonalization 2, value= 0.00D+00.
 GSVD:  LWork=      255972 too small for GESVD, short by      700020 words or      700020 for optimal perf.
 Remove ICRem=   91 ICRemI=    4 L=0 PNAO number   91 atom    5 type  51 NPNAO=  854
   due to symmetric orthogonalization 2, value= 0.00D+00.
 GSVD:  LWork=      257930 too small for GESVD, short by      694155 words or      694155 for optimal perf.
 Remove ICRem=  112 ICRemI=    4 L=0 PNAO number  112 atom    6 type  51 NPNAO=  853
   due to symmetric orthogonalization 2, value= 0.00D+00.
 GSVD:  LWork=      259884 too small for GESVD, short by      688302 words or      688302 for optimal perf.
 Remove ICRem=   69 ICRemI=    4 L=0 PNAO number   69 atom    4 type  51 NPNAO=  852
   due to symmetric orthogonalization 2, value= 0.00D+00.
 GSVD:  LWork=      261834 too small for GESVD, short by      682461 words or      682461 for optimal perf.
 Remove ICRem=  186 ICRemI=    4 L=0 PNAO number  186 atom   11 type  51 NPNAO=  851
   due to symmetric orthogonalization 2, value= 0.00D+00.
 GSVD:  LWork=      263780 too small for GESVD, short by      676632 words or      676632 for optimal perf.
 Remove ICRem=    7 ICRemI=    4 L=1 PNAO number   15 atom    1 type 153 NPNAO=  850
   due to symmetric orthogonalization 2, value= 0.00D+00.
 Remove ICRem=    7 ICRemI=    4 L=1 PNAO number   11 atom    1 type 152 NPNAO=  849
   due to symmetric orthogonalization 2, value= 0.00D+00.
 Remove ICRem=    7 ICRemI=    4 L=1 PNAO number    7 atom    1 type 151 NPNAO=  848
   due to symmetric orthogonalization 2, value= 0.00D+00.
 GSVD:  LWork=      269594 too small for GESVD, short by      659217 words or      659217 for optimal perf.

 Computed number of electrons  223.99888430 does not match expected value of   224.


 NATURAL POPULATIONS:  Natural atomic orbital occupancies 
                                                          
   NAO  Atom  No  lang   Type(AO)    Occupancy      Energy
 ----------------------------------------------------------
     1    C    1  S      Cor( 1S)     1.99895     -10.08364
     2    C    1  S      Val( 2S)     0.86006      -0.16518
     3    C    1  S      Ryd( 3S)     0.00290       0.69689
     4    C    1  S      Ryd( 4S)     0.00045       0.88781
     5    C    1  S      Ryd( 5S)     0.00002      23.04556
     6    C    1  px     Val( 2p)     1.06408      -0.12703
     7    C    1  px     Ryd( 3p)     0.00445       0.77560
     8    C    1  px     Ryd( 4p)     0.00031       2.89752
     9    C    1  py     Val( 2p)     1.02029      -0.11692
    10    C    1  py     Ryd( 3p)     0.00182       0.75223
    11    C    1  py     Ryd( 4p)     0.00033       3.02005
    12    C    1  pz     Val( 2p)     1.04723      -0.13555
    13    C    1  pz     Ryd( 3p)     0.00289       0.60738
    14    C    1  pz     Ryd( 4p)     0.00030       2.85030
    15    C    1  dxy    Ryd( 3d)     0.00062       2.23322
    16    C    1  dxz    Ryd( 3d)     0.00057       2.21358
    17    C    1  dyz    Ryd( 3d)     0.00082       2.13023
    18    C    1  dx2y2  Ryd( 3d)     0.00108       2.12540
    19    C    1  dz2    Ryd( 3d)     0.00063       1.82785

    20    C    2  S      Cor( 1S)     1.99907     -10.12734
    21    C    2  S      Val( 2S)     0.82931      -0.16691
    22    C    2  S      Ryd( 3S)     0.00236       0.71787
    23    C    2  S      Ryd( 4S)     0.00062       0.83210
    24    C    2  S      Ryd( 5S)     0.00002      23.10086
    25    C    2  px     Val( 2p)     0.92940      -0.10884
    26    C    2  px     Ryd( 4p)     0.00640       0.84434
    27    C    2  px     Ryd( 3p)     0.00059       0.81816
    28    C    2  px     Ryd( 5p)     0.00017       3.00836
    29    C    2  py     Val( 2p)     1.09144      -0.12982
    30    C    2  py     Ryd( 4p)     0.00825       1.03344
    31    C    2  py     Ryd( 3p)     0.00054       0.81856
    32    C    2  py     Ryd( 5p)     0.00014       2.98855
    33    C    2  pz     Val( 2p)     0.96884      -0.14011
    34    C    2  pz     Ryd( 3p)     0.00463       0.70143
    35    C    2  pz     Ryd( 4p)     0.00144       0.75987
    36    C    2  pz     Ryd( 5p)     0.00009       2.84324
    37    C    2  dxy    Ryd( 3d)     0.00095       2.24906
    38    C    2  dxz    Ryd( 3d)     0.00088       2.04979
    39    C    2  dyz    Ryd( 3d)     0.00090       2.11846
    40    C    2  dx2y2  Ryd( 3d)     0.00133       2.15030
    41    C    2  dz2    Ryd( 3d)     0.00109       1.78907

    42    C    3  S      Cor( 1S)     1.99910     -10.07956
    43    C    3  S      Val( 2S)     0.94430      -0.20767
    44    C    3  S      Ryd( 4S)     0.00280       0.74821
    45    C    3  S      Ryd( 3S)     0.00041       0.69066
    46    C    3  S      Ryd( 5S)     0.00001      23.16516
    47    C    3  px     Val( 2p)     1.06436      -0.12720
    48    C    3  px     Ryd( 3p)     0.00358       0.64893
    49    C    3  px     Ryd( 4p)     0.00080       0.70237
    50    C    3  px     Ryd( 5p)     0.00009       2.67740
    51    C    3  py     Val( 2p)     1.11009      -0.10706
    52    C    3  py     Ryd( 4p)     0.00441       0.85966
    53    C    3  py     Ryd( 3p)     0.00037       0.74668
    54    C    3  py     Ryd( 5p)     0.00011       2.73273
    55    C    3  pz     Val( 2p)     1.10243      -0.13748
    56    C    3  pz     Ryd( 3p)     0.00359       0.68176
    57    C    3  pz     Ryd( 4p)     0.00063       0.70337
    58    C    3  pz     Ryd( 5p)     0.00006       2.61949
    59    C    3  dxy    Ryd( 3d)     0.00066       2.22202
    60    C    3  dxz    Ryd( 3d)     0.00038       2.18933
    61    C    3  dyz    Ryd( 3d)     0.00059       2.04515
    62    C    3  dx2y2  Ryd( 3d)     0.00055       2.09617
    63    C    3  dz2    Ryd( 3d)     0.00057       1.81588

    64    C    4  S      Cor( 1S)     1.99896     -10.08483
    65    C    4  S      Val( 2S)     0.94046      -0.21847
    66    C    4  S      Ryd( 3S)     0.00060       0.83831
    67    C    4  S      Ryd( 4S)     0.00001      23.08689
    68    C    4  px     Val( 2p)     1.05396      -0.11582
    69    C    4  px     Ryd( 4p)     0.00454       0.64441
    70    C    4  px     Ryd( 3p)     0.00046       0.57747
    71    C    4  px     Ryd( 5p)     0.00009       2.82402
    72    C    4  py     Val( 2p)     1.13527      -0.10494
    73    C    4  py     Ryd( 3p)     0.00680       0.75490
    74    C    4  py     Ryd( 4p)     0.00040       0.89636
    75    C    4  py     Ryd( 5p)     0.00007       2.88242
    76    C    4  pz     Val( 2p)     1.01802      -0.12224
    77    C    4  pz     Ryd( 3p)     0.00354       0.56432
    78    C    4  pz     Ryd( 4p)     0.00068       0.56803
    79    C    4  pz     Ryd( 5p)     0.00009       2.80637
    80    C    4  dxy    Ryd( 3d)     0.00064       2.07360
    81    C    4  dxz    Ryd( 3d)     0.00073       2.14648
    82    C    4  dyz    Ryd( 3d)     0.00054       2.08166
    83    C    4  dx2y2  Ryd( 3d)     0.00057       2.06151
    84    C    4  dz2    Ryd( 3d)     0.00062       1.80116

    85    C    5  S      Cor( 1S)     1.99894     -10.07893
    86    C    5  S      Val( 2S)     0.93804      -0.21131
    87    C    5  S      Ryd( 3S)     0.00067       0.87544
    88    C    5  S      Ryd( 4S)     0.00001      23.21474
    89    C    5  px     Val( 2p)     1.10963      -0.12204
    90    C    5  px     Ryd( 4p)     0.00605       0.61473
    91    C    5  px     Ryd( 3p)     0.00050       0.56210
    92    C    5  px     Ryd( 5p)     0.00005       2.86698
    93    C    5  py     Val( 2p)     1.05424      -0.09969
    94    C    5  py     Ryd( 3p)     0.00413       0.64317
    95    C    5  py     Ryd( 4p)     0.00095       0.65332
    96    C    5  py     Ryd( 5p)     0.00012       2.99044
    97    C    5  pz     Val( 2p)     1.08431      -0.12528
    98    C    5  pz     Ryd( 4p)     0.00482       0.57528
    99    C    5  pz     Ryd( 3p)     0.00063       0.56287
   100    C    5  pz     Ryd( 5p)     0.00005       2.82665
   101    C    5  dxy    Ryd( 3d)     0.00059       2.16676
   102    C    5  dxz    Ryd( 3d)     0.00079       2.01250
   103    C    5  dyz    Ryd( 3d)     0.00060       2.11164
   104    C    5  dx2y2  Ryd( 3d)     0.00066       2.06917
   105    C    5  dz2    Ryd( 3d)     0.00046       1.79699

   106    C    6  S      Cor( 1S)     1.99902     -10.08004
   107    C    6  S      Val( 2S)     0.93386      -0.19514
   108    C    6  S      Ryd( 3S)     0.00238       0.79117
   109    C    6  S      Ryd( 4S)     0.00002      23.27929
   110    C    6  px     Val( 2p)     1.03843      -0.11542
   111    C    6  px     Ryd( 3p)     0.00375       0.58181
   112    C    6  px     Ryd( 4p)     0.00137       0.64336
   113    C    6  px     Ryd( 5p)     0.00011       2.89450
   114    C    6  py     Val( 2p)     1.13975      -0.11856
   115    C    6  py     Ryd( 3p)     0.01167       0.62763
   116    C    6  py     Ryd( 4p)     0.00053       0.82659
   117    C    6  py     Ryd( 5p)     0.00012       2.95348
   118    C    6  pz     Val( 2p)     1.06496      -0.12410
   119    C    6  pz     Ryd( 4p)     0.00461       0.60229
   120    C    6  pz     Ryd( 3p)     0.00083       0.56796
   121    C    6  pz     Ryd( 5p)     0.00006       2.80056
   122    C    6  dxy    Ryd( 3d)     0.00058       2.17287
   123    C    6  dxz    Ryd( 3d)     0.00060       2.18117
   124    C    6  dyz    Ryd( 3d)     0.00069       2.02807
   125    C    6  dx2y2  Ryd( 3d)     0.00073       2.10651
   126    C    6  dz2    Ryd( 3d)     0.00049       1.83317

   127    C    7  S      Cor( 1S)     1.99906     -10.09902
   128    C    7  S      Val( 2S)     0.87209      -0.17751
   129    C    7  S      Ryd( 3S)     0.00421       1.11064
   130    C    7  S      Ryd( 4S)     0.00074       1.32347
   131    C    7  S      Ryd( 5S)     0.00001      22.99341
   132    C    7  px     Val( 2p)     1.06100      -0.14517
   133    C    7  px     Ryd( 4p)     0.00679       0.76605
   134    C    7  px     Ryd( 3p)     0.00098       0.73002
   135    C    7  px     Ryd( 5p)     0.00006       3.16425
   136    C    7  py     Val( 2p)     1.06715      -0.13331
   137    C    7  py     Ryd( 4p)     0.01014       0.97143
   138    C    7  py     Ryd( 3p)     0.00035       0.78423
   139    C    7  py     Ryd( 5p)     0.00011       3.33174
   140    C    7  pz     Val( 2p)     1.06989      -0.15245
   141    C    7  pz     Ryd( 3p)     0.00649       0.75369
   142    C    7  pz     Ryd( 4p)     0.00179       0.91604
   143    C    7  pz     Ryd( 5p)     0.00005       3.07524
   144    C    7  dxy    Ryd( 3d)     0.00077       2.29542
   145    C    7  dxz    Ryd( 3d)     0.00045       2.12564
   146    C    7  dyz    Ryd( 3d)     0.00076       2.18093
   147    C    7  dx2y2  Ryd( 3d)     0.00066       2.05305
   148    C    7  dz2    Ryd( 3d)     0.00054       1.83236

   149    C    8  S      Cor( 1S)     1.99870     -10.13682
   150    C    8  S      Val( 2S)     0.81078      -0.18536
   151    C    8  S      Ryd( 4S)     0.00424       0.97601
   152    C    8  S      Ryd( 3S)     0.00063       0.96456
   153    C    8  S      Ryd( 5S)     0.00003      22.94310
   154    C    8  px     Val( 2p)     1.04523      -0.10982
   155    C    8  px     Ryd( 4p)     0.00561       1.95785
   156    C    8  px     Ryd( 3p)     0.00366       0.71738
   157    C    8  py     Val( 2p)     0.85892      -0.06467
   158    C    8  py     Ryd( 4p)     0.00429       1.98423
   159    C    8  py     Ryd( 3p)     0.00254       0.83759
   160    C    8  pz     Val( 2p)     1.04777      -0.13740
   161    C    8  pz     Ryd( 4p)     0.00518       1.39550
   162    C    8  pz     Ryd( 3p)     0.00314       0.84498
   163    C    8  dxy    Ryd( 3d)     0.00125       2.24126
   164    C    8  dxz    Ryd( 3d)     0.00097       2.07906
   165    C    8  dyz    Ryd( 3d)     0.00093       1.92960
   166    C    8  dx2y2  Ryd( 3d)     0.00178       2.23913
   167    C    8  dz2    Ryd( 3d)     0.00120       1.84257

   168    H    9  S      Val( 1S)     0.77644       0.00808
   169    H    9  S      Ryd( 2S)     0.00069       0.65619
   170    H    9  S      Ryd( 3S)     0.00026       0.71377
   171    H    9  S      Ryd( 4S)     0.00014       1.58625
   172    H    9  px     Ryd( 2p)     0.00017       1.86166
   173    H    9  py     Ryd( 2p)     0.00035       2.32006
   174    H    9  pz     Ryd( 2p)     0.00026       2.04306

   175    H   10  S      Val( 1S)     0.78122       0.02260
   176    H   10  S      Ryd( 2S)     0.00164       0.47684
   177    H   10  S      Ryd( 4S)     0.00033       1.36383
   178    H   10  S      Ryd( 3S)     0.00008       1.15235
   179    H   10  px     Ryd( 2p)     0.00024       1.97749
   180    H   10  py     Ryd( 2p)     0.00043       2.39877
   181    H   10  pz     Ryd( 2p)     0.00018       1.75495

   182    H   11  S      Val( 1S)     0.77846       0.01340
   183    H   11  S      Ryd( 2S)     0.00047       1.26650
   184    H   11  S      Ryd( 3S)     0.00010       1.34131
   185    H   11  px     Ryd( 2p)     0.00037       2.19090
   186    H   11  py     Ryd( 2p)     0.00017       1.89351
   187    H   11  pz     Ryd( 2p)     0.00033       2.05590

   188    H   12  S      Val( 1S)     0.78165       0.00556
   189    H   12  S      Ryd( 2S)     0.00045       0.72732
   190    H   12  S      Ryd( 3S)     0.00025       1.89566
   191    H   12  px     Ryd( 2p)     0.00023       1.83668
   192    H   12  py     Ryd( 2p)     0.00028       2.33009
   193    H   12  pz     Ryd( 2p)     0.00033       2.03441

   194    N   13  S      Cor( 1S)     1.99932     -14.24143
   195    N   13  S      Val( 2S)     1.22153      -0.58466
   196    N   13  S      Ryd( 4S)     0.00331       1.46578
   197    N   13  S      Ryd( 3S)     0.00013       1.05418
   198    N   13  S      Ryd( 5S)     0.00000      35.26637
   199    N   13  px     Val( 2p)     1.43424      -0.31814
   200    N   13  px     Ryd( 4p)     0.00779       0.82400
   201    N   13  px     Ryd( 3p)     0.00197       0.70796
   202    N   13  px     Ryd( 5p)     0.00003       4.10242
   203    N   13  py     Val( 2p)     1.36295      -0.31845
   204    N   13  py     Ryd( 4p)     0.00367       0.88095
   205    N   13  py     Ryd( 3p)     0.00099       0.59816
   206    N   13  py     Ryd( 5p)     0.00005       4.29408
   207    N   13  pz     Val( 2p)     1.51498      -0.32199
   208    N   13  pz     Ryd( 4p)     0.00748       0.77557
   209    N   13  pz     Ryd( 3p)     0.00143       0.53309
   210    N   13  pz     Ryd( 5p)     0.00004       4.01041
   211    N   13  dxy    Ryd( 3d)     0.00047       2.56879
   212    N   13  dxz    Ryd( 3d)     0.00066       2.62772
   213    N   13  dyz    Ryd( 3d)     0.00063       2.55737
   214    N   13  dx2y2  Ryd( 3d)     0.00065       2.63939
   215    N   13  dz2    Ryd( 3d)     0.00043       2.34723

   216    H   14  S      Val( 1S)     0.57001       0.02530
   217    H   14  S      Ryd( 3S)     0.00095       0.62224
   218    H   14  S      Ryd( 4S)     0.00066       2.21917
   219    H   14  S      Ryd( 2S)     0.00011       0.47366
   220    H   14  px     Ryd( 2p)     0.00054       1.94859
   221    H   14  py     Ryd( 2p)     0.00077       2.08838
   222    H   14  pz     Ryd( 2p)     0.00058       2.11481

   223    C   15  S      Cor( 1S)     1.99900     -10.20244
   224    C   15  S      Val( 2S)     0.93684      -0.30024
   225    C   15  S      Ryd( 3S)     0.00343       1.24894
   226    C   15  S      Ryd( 4S)     0.00147       1.97339
   227    C   15  S      Ryd( 5S)     0.00027      18.45546
[...]
                                                    698(r),646(r),377(r),327(r)
                                                    311(r),449(r),132(r),326(r)
                                                    479(r),154(r),532(r),465(r)
                                                    348(r),542(r),675(g),749(v)
                                                    358(r),498(r),404(r),249(r)
                                                    545(r),346(r),396(r),281(r)
                                                    505(r),478(r),135(r),854(r)
                                                    432(r),238(r),353(r),247(r)
                                                    485(r),285(r),761(r),741(v)
                                                    360(r),462(r),398(r),662(r)
                                                    309(r),302(r),551(r),692(r)
                                                    855(r),131(r),289(r),230(r)
                                                    816(r),490(r),339(r),848(r)
                                                    475(r),260(r),212(r),385(r)
                                                    251(r),139(r),732(v),714(g)
                                                    257(r),381(r),494(r),670(g)
                                                    244(r),217(r),828(r),664(g)
                                                    167(r),165(r),496(r),431(r)
                                                    437(r),528(r),853(r),335(r)
                                                    544(r),747(r),379(r),411(r)
                                                    424(r),791(r),371(r),571(r)
                                                    703(g),723(v),120(r),159(r)
                                                    134(r),718(g),369(r),547(r)
                                                    291(r),725(v),484(r),146(r)
                                                    513(r),660(r),537(r),724(v)
                                                    568(r),681(r),399(r),474(r)
                                                    378(r),491(r),717(g),231(r)
                                                    420(r),719(g),171(r),623(r)
                                                    754(v),504(r),277(r),150(r)
                                                    374(r),522(r),851(r),384(r)
                                                    639(v),409(r),388(r),514(r)
                                                    530(r),838(r),712(g),448(r)
                                                    224(r),722(v),137(r),678(g)
                                                    259(r),128(r),799(r),642(v)
                                                    416(r),856(r),325(r),673(g)
                                                    730(v),757(r),290(r),450(r)
                                                    225(r),684(r),476(r),156(r)
                                                    506(r),459(r),320(r),736(v)
                                                    738(v),241(r),362(r),148(r)
                                                    357(r),280(r),380(r),239(r)
                                                    672(g),418(r),419(r),220(r)
                                                    852(r),303(r),510(r),516(r)
                                                    197(r),229(r),744(r),288(r)
                                                    266(r),650(r),648(r),575(r)
                                                    255(r),661(r),414(r),541(r)
                                                    515(r),149(r),243(r),808(r)
                                                    443(r),186(r),228(r),472(r)
                                                    665(g),219(r),218(r),745(r)
                                                    337(r),734(v),567(r),468(r)
                                                    314(r),141(r),481(r),527(r)
                                                    163(r),518(r),452(r),366(r)
                                                    643(v),446(r),181(r),786(r)
                                                    540(r),707(g),471(r),263(r)
                                                    215(r),769(r),382(r),572(r)
                                                    415(r),147(r),206(r),164(r)
                                                    535(r),495(r),242(r),169(r)
                                                    196(r),161(r),122(r),123(r)
                                                    857(r),628(r),447(r),847(v)
                                                    500(r),211(r),815(r),442(r)
                                                    850(r)
   841. BD*(   1) C  43 - H  47          0.01386    -0.80891   
   842. BD*(   1) C  44 - C  48          0.01562   -42.05956   
   843. BD*(   2) C  44 - C  48          0.29334  -182.66368  685(g),729(g),778(r),844(g)
                                                    777(r),645(r),774(r),657(v)
                                                    836(r),830(r),688(g),837(g)
                                                    768(r),693(g),751(r),771(r)
                                                    766(r),651(v),842(g),342(r)
                                                    773(r),689(g),658(v),248(r)
                                                    624(r),390(r),772(r),627(r)
                                                    835(v),701(r),702(r),762(r)
                                                    620(r),691(g),767(r),686(g)
                                                    715(v),654(v),364(r),617(r)
                                                    312(r),393(r),656(v),775(r)
                                                    687(g),321(r),763(r),616(r)
                                                    829(r),758(v),282(r),130(r)
                                                    623(r),708(v),252(r),363(r)
                                                    677(r),355(r),392(r),776(r)
                                                    317(r),394(r),310(r),347(r)
                                                    274(r),621(r),329(r),845(g)
                                                    765(r),640(r),503(r),846(v)
                                                    441(r),764(r),354(r),659(v)
                                                    330(r),308(r),463(r),214(r)
                                                    668(r),213(r),669(r),350(r)
                                                    216(r),386(r),612(r),644(r)
                                                    508(r),151(r),653(v),324(r)
                                                    711(v),222(r),316(r),292(r)
                                                    809(r),346(r),733(g),138(r)
                                                    461(r),142(r),690(g),710(v)
                                                    700(r),748(v),676(r),351(r)
                                                    787(r),270(r),335(r),253(r)
                                                    699(r),728(g),695(g),333(r)
                                                    278(r),622(r),445(r),323(r)
                                                    833(r),696(g),697(r),377(r)
                                                    235(r),735(g),300(r),741(g)
                                                    539(r),331(r),365(r),655(v)
                                                    457(r),256(r),129(r),307(r)
                                                    408(r),614(r),328(r),433(r)
                                                    133(r),694(g),716(v),662(v)
                                                    406(r),613(r),334(r),838(v)
                                                    652(v),841(r),666(r),370(r)
                                                    304(r),750(r),136(r),403(r)
                                                    780(r),709(v),318(r),650(v)
                                                    489(r),698(r),462(r),674(r)
                                                    626(r),641(r),713(v),349(r)
                                                    498(r),459(r),671(r),401(r)
                                                    749(r),336(r),400(r),315(r)
                                                    239(r),247(r),398(r),479(r)
                                                    465(r),132(r),460(r),545(r)
                                                    543(r),313(r),135(r),326(r)
                                                    505(r),538(r),332(r),234(r)
                                                    828(r),360(r),223(r),311(r)
                                                    407(r),719(v),249(r),284(r)
                                                    770(r),309(r),675(r),490(r)
                                                    260(r),153(r),385(r),619(r)
                                                    320(r),396(r),575(r),769(r)
                                                    420(r),293(r),251(r),494(r)
                                                    532(r),381(r),816(r),224(r)
                                                    502(r),257(r),799(r),368(r)
                                                    379(r),281(r),131(r),212(r)
                                                    840(v),678(r),478(r),227(r)
                                                    551(r),542(r),404(r),737(g)
                                                    372(r),648(v),437(r),660(v)
                                                    325(r),140(r),279(r),466(r)
                                                    165(r),615(r),358(r),139(r)
                                                    378(r),618(r),291(r),754(r)
                                                    732(g),302(r),387(r),167(r)
                                                    513(r),468(r),761(r),197(r)
                                                    703(v),724(r),723(r),327(r)
                                                    474(r),389(r),432(r),146(r)
                                                    275(r),152(r),154(r),491(r)
                                                    537(r),547(r),369(r),544(r)
                                                    747(v),571(r),832(r),681(g)
                                                    725(r),285(r),339(r),692(g)
                                                    150(r),159(r),475(r),757(v)
                                                    449(r),485(r),238(r),664(r)
                                                    424(r),839(v),362(r),670(r)
                                                    344(r),431(r),714(v),712(v)
                                                    120(r),297(r),528(r),504(r)
                                                    353(r),722(r),128(r),467(r)
                                                    808(r),384(r),289(r),506(r)
                                                    411(r),348(r),399(r),301(r)
                                                    568(r),171(r),230(r),514(r)
                                                    481(r),684(g),217(r),225(r)
                                                    484(r),294(r),196(r),717(v)
                                                    450(r),730(g),148(r),375(r)
                                                    791(r),831(r),496(r),259(r)
                                                    373(r),707(v),288(r),518(r)
                                                    452(r),522(r),823(r),786(r)
                                                    517(r),141(r),718(v),679(r)
                                                    447(r),745(v),672(r),280(r)
                                                    341(r),480(r),303(r),255(r)
                                                    736(g),376(r),371(r),380(r)
                                                    444(r),271(r),149(r),738(g)
                                                    744(v),382(r),673(r),181(r)
                                                    340(r),170(r),298(r),229(r)
                                                    366(r),156(r),535(r),442(r)
                                                    296(r),743(v),446(r),440(r)
                                                    572(r),290(r),198(r),137(r)
                                                    530(r),277(r),357(r),680(g)
                                                    295(r),266(r),476(r),163(r)
                                                    815(r),210(r),495(r),211(r)
                                                    472(r),567(r),415(r),501(r)
                                                    314(r),807(r),155(r),161(r)
                                                    639(r),541(r),305(r),416(r)
                                                    231(r),241(r),516(r),477(r)
                                                    531(r),343(r),704(v),164(r)
                                                    228(r),448(r),263(r),186(r)
                                                    286(r),367(r),540(r),455(r)
                                                    319(r),147(r),273(r),414(r)
                                                    226(r),536(r),814(r),752(r)
                                                    579(r),527(r),429(r),665(r)
                                                    233(r),283(r),661(v),183(r)
                                                    638(r),409(r),647(v),206(r)
                                                    515(r),169(r),299(r),731(g)
                                                    552(r),215(r),395(r),499(r)
                                                    405(r),123(r),546(r),158(r)
                                                    179(r),526(r),636(r),124(r)
                                                    418(r),190(r),562(r),510(r)
                                                    822(r),721(r),160(r),182(r)
                                                    734(g),847(g),482(r),374(r)
                                                    337(r),573(r),220(r),642(r)
                                                    200(r),168(r),237(r),649(v)
                                                    443(r),469(r),798(r),576(r)
                                                    760(v),598(r),507(r),345(r)
                                                    361(r),114(r),438(r),122(r)
                                                    561(r),500(r),276(r),265(r)
                                                    115(r),755(v),511(r),553(r)
                                                    134(r),144(r),683(g),189(r)
                                                    706(v),258(r),779(r),788(r)
                                                    818(r),117(r),521(r),550(r)
                                                    162(r),559(r),184(r),509(r)
                                                    486(r),435(r),203(r),821(r)
                                                    219(r),202(r),646(v),548(r)
                                                    682(g),242(r),201(r),643(r)
                                                    240(r),413(r),582(r),145(r)
                                                    451(r),176(r),628(r),246(r)
                                                    556(r),811(r),116(r),118(r)
                                                    287(r),428(r),178(r),584(r)
                                                    427(r),187(r),812(r),352(r)
                                                    188(r),566(r),488(r),781(r)
                                                    578(r),103(r),629(r),272(r)
                                                    470(r),111(r),746(v),356(r)
                                                    439(r),267(r),391(r),800(r)
                                                    577(r),794(r),193(r),402(r)
                                                    269(r),529(r)
   844. BD*(   1) C  44 - H  49          0.01306  -416.48948   
   845. BD*(   1) C  46 - C  48          0.01570    -3.80372   
   846. BD*(   1) C  46 - H  50          0.01334    -3.74722   
   847. BD*(   1) C  48 - H  51          0.01292     2.29609   
       -------------------------------
              Total Lewis  217.09291  ( 96.9165%)
        Valence non-Lewis    6.32670  (  2.8244%)
        Rydberg non-Lewis    0.58039  (  0.2591%)
       -------------------------------
            Total unit  1  224.00000  (100.0000%)
           Charge unit  1    1.00000
 Leave Link  607 at Fri Mar 21 16:58:28 2025, MaxMem=  3758096384 cpu:             137.8 elap:               8.7
 (Enter /cm/shared/apps/spack/cpu/opt/spack/linux-centos8-zen/gcc-8.3.1/gaussian-16.C.01-po5bqktfeugvmjyga3v7eigbecnokxng/g16/l9999.exe)
 Unable to Open any file for archive entry.
 1\1\GINC-EXP-12-10\SP\RB3LYP\6-311++G(d,p)\C25H22N3O4(1+)\MGALANTE\21-
 Mar-2025\0\\#p B3LYP 6-311++G** empiricaldispersion=gd3bj pop=nbo scf=
 tight scrf=(pcm,solvent=Toluene)\\reactant fragmant from S15\\1,1\C,0,
 -1.978326,-1.895205,-3.613262\C,0,-3.202393,-1.486795,-3.010061\C,0,-4
 .119648,-2.410497,-2.499288\C,0,-3.754866,-3.747011,-2.518499\C,0,-2.5
 23685,-4.168843,-3.069017\C,0,-1.642635,-3.263582,-3.631758\C,0,-1.320
 079,-0.709204,-4.065852\C,0,-2.122366,0.364119,-3.693734\H,0,-5.064576
 ,-2.084873,-2.086901\H,0,-4.419438,-4.481534,-2.078137\H,0,-2.264382,-
 5.222112,-3.041105\H,0,-0.697046,-3.593522,-4.042131\N,0,-3.249747,-0.
 110903,-3.03914\H,0,-4.029496,0.446167,-2.723465\C,0,-1.690484,1.75375
 ,-3.762401\C,0,0.065247,-0.589026,-4.62425\C,0,0.863588,0.663241,-4.14
 8819\N,0,0.10595,1.455886,-3.151055\H,0,0.629464,-1.481302,-4.342302\H
 ,0,0.039578,-0.572303,-5.721731\H,0,1.77665,0.336602,-3.65022\H,0,1.12
 7525,1.332347,-4.967468\C,0,0.640069,2.718863,-2.763209\O,0,0.950277,3
 .597439,-3.525528\O,0,0.625307,2.741762,-1.418319\H,0,-0.091454,0.8780
 64,-2.303069\C,0,0.578748,3.873771,-0.622855\C,0,0.729226,5.182967,-1.
 079837\C,0,0.306982,3.576766,0.714767\C,0,0.568171,6.219345,-0.163865\
 H,0,0.959912,5.382056,-2.115601\C,0,0.153178,4.612002,1.623636\H,0,0.1
 98161,2.540337,1.008995\C,0,0.27714,5.923313,1.165958\H,0,0.666501,7.2
 5324,-0.469137\H,0,-0.067291,4.41887,2.663722\N,0,0.092968,7.023885,2.
 117029\O,0,-0.137871,6.732361,3.291766\O,0,0.173749,8.174421,1.686318\
 C,0,-1.435434,2.262326,-5.168268\C,0,-2.234009,2.746293,-2.783479\C,0,
 -2.389376,4.096062,-3.145428\C,0,-2.477539,2.377424,-1.446066\C,0,-2.7
 81276,5.046727,-2.205736\H,0,-2.198804,4.415515,-4.162356\C,0,-2.84457
 9,3.33732,-0.506885\H,0,-2.301712,1.357147,-1.131322\C,0,-3.001575,4.6
 72427,-0.880823\H,0,-2.895916,6.083136,-2.507687\H,0,-2.968424,3.04565
 ,0.531207\H,0,-3.275513,5.418558,-0.141029\H,0,-1.064482,1.465432,-5.8
 11393\H,0,-2.400083,2.579455,-5.580492\H,0,-0.744492,3.106418,-5.19231
 1\\Version=ES64L-G16RevC.01\State=1-A\HF=-1431.2778618\RMSD=4.411e-09\
 Dipole=-0.2967045,-2.9957237,-2.8073407\Quadrupole=6.1510044,0.2889823
 ,-6.4399867,-4.5361291,-6.396435,-9.4732358\PG=C01 [X(C25H22N3O4)]\\@
 The archive entry for this job was punched.


 READER, WHETHER YOU BE DILETTANTE OR PROFESSOR ... SHOW YOURSELF TO BE
 MORE HUMAN THAN CRITICAL, AND THEN YOUR PLEASURE WILL INCREASE.
                                           -- DOMENICO SCARLATTI (1738)
 Job cpu time:       0 days  2 hours 33 minutes 14.4 seconds.
 Elapsed time:       0 days  0 hours  9 minutes 40.2 seconds.
 File lengths (MBytes):  RWF=    606 Int=      0 D2E=      0 Chk=     45 Scr=      1
 Normal termination of Gaussian 16 at Fri Mar 21 16:58:28 2025.
