 Initial command:
 /cm/shared/apps/spack/cpu/opt/spack/linux-centos8-zen/gcc-8.3.1/gaussian-16.C.01-po5bqktfeugvmjyga3v7eigbecnokxng/g16/l1.exe "/scratch/mgalante/job_37696844/Gau-183313.inp" -scrdir="/scratch/mgalante/job_37696844/"
 Default is to use a total of  16 processors:
                               16 via shared-memory
                                1 via Linda
 Entering Link 1 = /cm/shared/apps/spack/cpu/opt/spack/linux-centos8-zen/gcc-8.3.1/gaussian-16.C.01-po5bqktfeugvmjyga3v7eigbecnokxng/g16/l1.exe PID=    301665.
  
 Copyright (c) 1988-2019, Gaussian, Inc.  All Rights Reserved.
  
 This is part of the Gaussian(R) 16 program.  It is based on
 the Gaussian(R) 09 system (copyright 2009, Gaussian, Inc.),
 the Gaussian(R) 03 system (copyright 2003, Gaussian, Inc.),
 the Gaussian(R) 98 system (copyright 1998, Gaussian, Inc.),
 the Gaussian(R) 94 system (copyright 1995, Gaussian, Inc.),
 the Gaussian 92(TM) system (copyright 1992, Gaussian, Inc.),
 the Gaussian 90(TM) system (copyright 1990, Gaussian, Inc.),
 the Gaussian 88(TM) system (copyright 1988, Gaussian, Inc.),
 the Gaussian 86(TM) system (copyright 1986, Carnegie Mellon
 University), and the Gaussian 82(TM) system (copyright 1983,
 Carnegie Mellon University). Gaussian is a federally registered
 trademark of Gaussian, Inc.
  
 This software contains proprietary and confidential information,
 including trade secrets, belonging to Gaussian, Inc.
  
 This software is provided under written license and may be
 used, copied, transmitted, or stored only in accord with that
 written license.
  
 The following legend is applicable only to US Government
 contracts under FAR:
  
                    RESTRICTED RIGHTS LEGEND
  
 Use, reproduction and disclosure by the US Government is
 subject to restrictions as set forth in subparagraphs (a)
 and (c) of the Commercial Computer Software - Restricted
 Rights clause in FAR 52.227-19.
  
 Gaussian, Inc.
 340 Quinnipiac St., Bldg. 40, Wallingford CT 06492
  
  
 ---------------------------------------------------------------
 Warning -- This program may not be used in any manner that
 competes with the business of Gaussian, Inc. or will provide
 assistance to any competitor of Gaussian, Inc.  The licensee
 of this program is prohibited from giving any competitor of
 Gaussian, Inc. access to this program.  By using this program,
 the user acknowledges that Gaussian, Inc. is engaged in the
 business of creating and licensing software in the field of
 computational chemistry and represents and warrants to the
 licensee that it is not a competitor of Gaussian, Inc. and that
 it will not use this program in any manner prohibited above.
 ---------------------------------------------------------------
  

 Cite this work as:
 Gaussian 16, Revision C.01,
 M. J. Frisch, G. W. Trucks, H. B. Schlegel, G. E. Scuseria, 
 M. A. Robb, J. R. Cheeseman, G. Scalmani, V. Barone, 
 G. A. Petersson, H. Nakatsuji, X. Li, M. Caricato, A. V. Marenich, 
 J. Bloino, B. G. Janesko, R. Gomperts, B. Mennucci, H. P. Hratchian, 
 J. V. Ortiz, A. F. Izmaylov, J. L. Sonnenberg, D. Williams-Young, 
 F. Ding, F. Lipparini, F. Egidi, J. Goings, B. Peng, A. Petrone, 
 T. Henderson, D. Ranasinghe, V. G. Zakrzewski, J. Gao, N. Rega, 
 G. Zheng, W. Liang, M. Hada, M. Ehara, K. Toyota, R. Fukuda, 
 J. Hasegawa, M. Ishida, T. Nakajima, Y. Honda, O. Kitao, H. Nakai, 
 T. Vreven, K. Throssell, J. A. Montgomery, Jr., J. E. Peralta, 
 F. Ogliaro, M. J. Bearpark, J. J. Heyd, E. N. Brothers, K. N. Kudin, 
 V. N. Staroverov, T. A. Keith, R. Kobayashi, J. Normand, 
 K. Raghavachari, A. P. Rendell, J. C. Burant, S. S. Iyengar, 
 J. Tomasi, M. Cossi, J. M. Millam, M. Klene, C. Adamo, R. Cammi, 
 J. W. Ochterski, R. L. Martin, K. Morokuma, O. Farkas, 
 J. B. Foresman, and D. J. Fox, Gaussian, Inc., Wallingford CT, 2019.
 
 ******************************************
 Gaussian 16:  ES64L-G16RevC.01  3-Jul-2019
                21-Mar-2025 
 ******************************************
 %chk=R_rctopt.chk
 ----------------------------------------------------------------------
 #p B3LYP 6-311++G** empiricaldispersion=gd3bj pop=nbo scf=tight scrf=(
 pcm,solvent=Toluene) geom=check
 ----------------------------------------------------------------------
 1/29=2,38=1,172=1/1;
 2/12=2,40=1/2;
 3/5=4,6=6,7=1111,11=2,14=-4,25=1,30=1,70=2201,72=13,74=-5,124=41/1,2,3;
 4//1;
 5/5=2,32=2,38=5,53=13/2;
 6/7=2,8=2,9=2,10=2,28=1,40=1/1,7;
 99/5=1,9=1/99;
 Leave Link    1 at Fri Mar 21 23:30:47 2025, MaxMem=           0 cpu:               0.9 elap:               0.1
 (Enter /cm/shared/apps/spack/cpu/opt/spack/linux-centos8-zen/gcc-8.3.1/gaussian-16.C.01-po5bqktfeugvmjyga3v7eigbecnokxng/g16/l101.exe)
 --------------------------
 reactant fragmant from S15
 --------------------------
 Structure from the checkpoint file:  "R_rctopt.chk"
 Charge =  1 Multiplicity = 1
 Redundant internal coordinates found in file.  (old form).
 C,0,-1.6357334979,-0.46978924,-2.7615359131
 C,0,-2.6723944044,0.2661239778,-2.0911580957
 C,0,-3.2533341221,-0.1882703155,-0.8939890214
 C,0,-2.7563885577,-1.3647824579,-0.3648654456
 C,0,-1.7018183088,-2.0969690432,-0.9907282837
 C,0,-1.1405334668,-1.6649745504,-2.169997785
 C,0,-1.3138116217,0.2152275871,-3.9467501631
 C,0,-2.1416173516,1.3922928852,-3.98478093
 H,0,-4.0470105487,0.3651563591,-0.4023220877
 H,0,-3.1753086385,-1.745761059,0.5618453436
 H,0,-1.3495416862,-3.0103572629,-0.5228831379
 H,0,-0.3453934636,-2.2294623012,-2.6457408578
 N,0,-2.9214054658,1.3821921561,-2.8146092607
 H,0,-3.6653116209,2.0429825227,-2.6347962729
 C,0,-2.2171237015,2.4420537601,-4.891293115
 C,0,-0.1484578949,-0.1285338279,-4.8176750264
 C,0,1.09887307,0.7479546604,-4.5083374739
 N,0,1.5404988242,0.6624546633,-3.1294723306
 H,0,0.1140648255,-1.179012974,-4.6595287054
 H,0,-0.3784831403,-0.0208258389,-5.8804723382
 H,0,1.9209777512,0.4263469675,-5.1530197165
 H,0,0.8842574352,1.7963359186,-4.7277260855
 C,0,1.0257900041,1.4708306483,-2.1689743101
 O,0,0.1558350215,2.3078200056,-2.343538487
 O,0,1.6205152454,1.2150405057,-0.9644068212
 H,0,2.2676992864,0.0121084014,-2.86266561
 C,0,1.0301969498,1.8050809573,0.1560012925
 C,0,1.6843620015,2.8603436678,0.7824629955
 C,0,-0.1681659844,1.284057293,0.6399736249
 C,0,1.1151068374,3.4255397922,1.9232416896
 H,0,2.6201195699,3.232784865,0.3799319941
 C,0,-0.7437537226,1.8487370046,1.7726893215
 H,0,-0.6376788288,0.4485009333,0.1348163564
 C,0,-0.0939810958,2.9159756495,2.3930227076
 H,0,1.5896882587,4.2500941823,2.4410145289
 H,0,-1.6749316617,1.4761195126,2.181376032
 N,0,-0.7137370702,3.5265993184,3.5825735771
 O,0,-1.8011579768,3.0786436299,3.9486447199
 O,0,-0.1113446192,4.448172705,4.1293734997
 C,0,-1.6851730715,2.3234514898,-6.287385103
 C,0,-2.8058234615,3.7144654223,-4.4825196958
 C,0,-3.64296011,4.4535197093,-5.34873794
 C,0,-2.4817081601,4.2559715347,-3.2129201434
 C,0,-4.1729777901,5.6728146475,-4.9422535855
 H,0,-3.9184678339,4.0510898054,-6.3182561243
 C,0,-2.9897450958,5.4937006035,-2.8318644845
 H,0,-1.7766840838,3.7325891616,-2.5750190498
 C,0,-3.8445132073,6.1980496055,-3.6867371526
 H,0,-4.8400129851,6.2176367495,-5.6030077978
 H,0,-2.7093148038,5.9162149562,-1.8717974745
 H,0,-4.2470166464,7.1590113347,-3.3805113229
 H,0,-1.7232292968,1.3054308993,-6.675505503
 H,0,-2.2378577222,2.9785385971,-6.9644070881
 H,0,-0.6446883612,2.6754358248,-6.3166709435
 Recover connectivity data from disk.
 ITRead=  0  0  0  0  0  0  0  0  0  0  0  0  0  0  0  0  0  0  0  0
 ITRead=  0  0  0  0  0  0  0  0  0  0  0  0  0  0  0  0  0  0  0  0
 ITRead=  0  0  0  0  0  0  0  0  0  0  0  0  0  0
 MicOpt= -1 -1 -1 -1 -1 -1 -1 -1 -1 -1 -1 -1 -1 -1 -1 -1 -1 -1 -1 -1
 MicOpt= -1 -1 -1 -1 -1 -1 -1 -1 -1 -1 -1 -1 -1 -1 -1 -1 -1 -1 -1 -1
 MicOpt= -1 -1 -1 -1 -1 -1 -1 -1 -1 -1 -1 -1 -1 -1
                           ----------------------------
                           !    Current Parameters    !
                           ! (Angstroms and Degrees)  !
 --------------------------                            --------------------------
 ! Name  Definition              Value                                          !
 --------------------------------------------------------------------------------
 ! R1    R(1,2)                  1.4372                                         !
 ! R2    R(1,6)                  1.4225                                         !
 ! R3    R(1,7)                  1.4063                                         !
 ! R4    R(2,3)                  1.4061                                         !
 ! R5    R(2,13)                 1.3531                                         !
 ! R6    R(3,4)                  1.3824                                         !
 ! R7    R(3,9)                  1.0853                                         !
 ! R8    R(4,5)                  1.4283                                         !
 ! R9    R(4,10)                 1.086                                          !
 ! R10   R(5,6)                  1.3756                                         !
 ! R11   R(5,11)                 1.085                                          !
 ! R12   R(6,12)                 1.085                                          !
 ! R13   R(7,8)                  1.4395                                         !
 ! R14   R(7,16)                 1.4949                                         !
 ! R15   R(8,13)                 1.4062                                         !
 ! R16   R(8,15)                 1.3891                                         !
 ! R17   R(13,14)                1.0111                                         !
 ! R18   R(15,40)                1.4987                                         !
 ! R19   R(15,41)                1.4604                                         !
 ! R20   R(16,17)                1.5556                                         !
 ! R21   R(16,19)                1.0943                                         !
 ! R22   R(16,20)                1.0927                                         !
 ! R23   R(17,18)                1.4504                                         !
 ! R24   R(17,21)                1.0931                                         !
 ! R25   R(17,22)                1.0924                                         !
 ! R26   R(18,23)                1.3568                                         !
 ! R27   R(18,26)                1.0114                                         !
 ! R28   R(23,24)                1.2198                                         !
 ! R29   R(23,25)                1.3675                                         !
 ! R30   R(25,27)                1.3971                                         !
 ! R31   R(27,28)                1.3907                                         !
 ! R32   R(27,29)                1.3935                                         !
 ! R33   R(28,30)                1.3946                                         !
 ! R34   R(28,31)                1.0846                                         !
 ! R35   R(29,32)                1.3904                                         !
 ! R36   R(29,33)                1.0834                                         !
 ! R37   R(30,34)                1.3936                                         !
 ! R38   R(30,35)                1.0831                                         !
 ! R39   R(32,34)                1.395                                          !
 ! R40   R(32,36)                1.083                                          !
 ! R41   R(34,37)                1.4738                                         !
 ! R42   R(37,38)                1.2317                                         !
 ! R43   R(37,39)                1.2293                                         !
 ! R44   R(40,52)                1.0902                                         !
 ! R45   R(40,53)                1.0922                                         !
 ! R46   R(40,54)                1.0988                                         !
 ! R47   R(41,42)                1.4133                                         !
 ! R48   R(41,43)                1.4178                                         !
 ! R49   R(42,44)                1.3903                                         !
 ! R50   R(42,45)                1.0853                                         !
 ! R51   R(43,46)                1.3911                                         !
 ! R52   R(43,47)                1.0853                                         !
 ! R53   R(44,48)                1.4                                            !
 ! R54   R(44,49)                1.0855                                         !
 ! R55   R(46,48)                1.3991                                         !
 ! R56   R(46,50)                1.0858                                         !
 ! R57   R(48,51)                1.0859                                         !
 ! A1    A(2,1,6)              119.1652                                         !
 ! A2    A(2,1,7)              107.9876                                         !
 ! A3    A(6,1,7)              132.8468                                         !
 ! A4    A(1,2,3)              121.9823                                         !
 ! A5    A(1,2,13)             107.7992                                         !
 ! A6    A(3,2,13)             130.2184                                         !
 ! A7    A(2,3,4)              116.8962                                         !
 ! A8    A(2,3,9)              121.5363                                         !
 ! A9    A(4,3,9)              121.5638                                         !
 ! A10   A(3,4,5)              122.275                                          !
 ! A11   A(3,4,10)             119.1103                                         !
 ! A12   A(5,4,10)             118.6136                                         !
 ! A13   A(4,5,6)              121.0598                                         !
 ! A14   A(4,5,11)             118.838                                          !
 ! A15   A(6,5,11)             120.1012                                         !
 ! A16   A(1,6,5)              118.5736                                         !
 ! A17   A(1,6,12)             120.6569                                         !
 ! A18   A(5,6,12)             120.7653                                         !
 ! A19   A(1,7,8)              106.7939                                         !
 ! A20   A(1,7,16)             123.8798                                         !
 ! A21   A(8,7,16)             128.384                                          !
 ! A22   A(7,8,13)             106.9195                                         !
 ! A23   A(7,8,15)             131.7942                                         !
 ! A24   A(13,8,15)            121.2215                                         !
 ! A25   A(2,13,8)             110.4124                                         !
 ! A26   A(2,13,14)            125.4037                                         !
 ! A27   A(8,13,14)            123.4538                                         !
 ! A28   A(8,15,40)            121.9264                                         !
 ! A29   A(8,15,41)            119.8485                                         !
 ! A30   A(40,15,41)           118.2148                                         !
 ! A31   A(7,16,17)            112.3128                                         !
 ! A32   A(7,16,19)            108.8792                                         !
 ! A33   A(7,16,20)            112.3258                                         !
 ! A34   A(17,16,19)           108.6506                                         !
 ! A35   A(17,16,20)           107.8586                                         !
 ! A36   A(19,16,20)           106.6                                            !
 ! A37   A(16,17,18)           113.5778                                         !
 ! A38   A(16,17,21)           108.6628                                         !
 ! A39   A(16,17,22)           110.0772                                         !
 ! A40   A(18,17,21)           108.3211                                         !
 ! A41   A(18,17,22)           107.8984                                         !
 ! A42   A(21,17,22)           108.1601                                         !
 ! A43   A(17,18,23)           121.4913                                         !
 ! A44   A(17,18,26)           120.5054                                         !
 ! A45   A(23,18,26)           117.9762                                         !
 ! A46   A(18,23,24)           125.3147                                         !
 ! A47   A(18,23,25)           110.3122                                         !
 ! A48   A(24,23,25)           124.373                                          !
 ! A49   A(23,25,27)           116.3361                                         !
 ! A50   A(25,27,28)           118.8795                                         !
 ! A51   A(25,27,29)           118.9457                                         !
 ! A52   A(28,27,29)           122.1271                                         !
 ! A53   A(27,28,30)           118.9477                                         !
 ! A54   A(27,28,31)           119.9484                                         !
 ! A55   A(30,28,31)           121.1035                                         !
 ! A56   A(27,29,32)           119.1504                                         !
 ! A57   A(27,29,33)           119.9411                                         !
 ! A58   A(32,29,33)           120.9084                                         !
 ! A59   A(28,30,34)           118.7958                                         !
 ! A60   A(28,30,35)           121.3793                                         !
 ! A61   A(34,30,35)           119.8237                                         !
 ! A62   A(29,32,34)           118.6955                                         !
 ! A63   A(29,32,36)           121.5753                                         !
 ! A64   A(34,32,36)           119.7284                                         !
 ! A65   A(30,34,32)           122.2717                                         !
 ! A66   A(30,34,37)           119.0403                                         !
 ! A67   A(32,34,37)           118.6875                                         !
 ! A68   A(34,37,38)           117.4167                                         !
 ! A69   A(34,37,39)           117.6176                                         !
 ! A70   A(38,37,39)           124.9642                                         !
 ! A71   A(15,40,52)           113.1509                                         !
 ! A72   A(15,40,53)           110.5085                                         !
 ! A73   A(15,40,54)           109.6079                                         !
 ! A74   A(52,40,53)           108.768                                          !
 ! A75   A(52,40,54)           108.8266                                         !
 ! A76   A(53,40,54)           105.6948                                         !
 ! A77   A(15,41,42)           121.5238                                         !
 ! A78   A(15,41,43)           119.4243                                         !
 ! A79   A(42,41,43)           118.9819                                         !
 ! A80   A(41,42,44)           120.3478                                         !
 ! A81   A(41,42,45)           120.2653                                         !
 ! A82   A(44,42,45)           119.3158                                         !
 ! A83   A(41,43,46)           120.1068                                         !
 ! A84   A(41,43,47)           119.3825                                         !
 ! A85   A(46,43,47)           120.351                                          !
 ! A86   A(42,44,48)           120.118                                          !
 ! A87   A(42,44,49)           119.7667                                         !
 ! A88   A(48,44,49)           120.1151                                         !
 ! A89   A(43,46,48)           120.2417                                         !
 ! A90   A(43,46,50)           119.6109                                         !
 ! A91   A(48,46,50)           120.143                                          !
 ! A92   A(44,48,46)           120.1593                                         !
 ! A93   A(44,48,51)           119.8622                                         !
 ! A94   A(46,48,51)           119.9758                                         !
 ! D1    D(6,1,2,3)             -2.7142                                         !
 ! D2    D(6,1,2,13)           177.1523                                         !
 ! D3    D(7,1,2,3)            177.5013                                         !
 ! D4    D(7,1,2,13)            -2.6321                                         !
 ! D5    D(2,1,6,5)              1.8868                                         !
 ! D6    D(2,1,6,12)          -178.8445                                         !
 ! D7    D(7,1,6,5)           -178.3929                                         !
 ! D8    D(7,1,6,12)             0.8758                                         !
 ! D9    D(2,1,7,8)              1.1682                                         !
 ! D10   D(2,1,7,16)           170.8689                                         !
 ! D11   D(6,1,7,8)           -178.575                                          !
 ! D12   D(6,1,7,16)            -8.8744                                         !
 ! D13   D(1,2,3,4)              1.7007                                         !
 ! D14   D(1,2,3,9)           -178.9917                                         !
 ! D15   D(13,2,3,4)          -178.1329                                         !
 ! D16   D(13,2,3,9)             1.1747                                         !
 ! D17   D(1,2,13,8)             3.091                                          !
 ! D18   D(1,2,13,14)          173.5414                                         !
 ! D19   D(3,2,13,8)          -177.0573                                         !
 ! D20   D(3,2,13,14)           -6.6069                                         !
 ! D21   D(2,3,4,5)              0.0558                                         !
 ! D22   D(2,3,4,10)           179.6668                                         !
 ! D23   D(9,3,4,5)           -179.2516                                         !
 ! D24   D(9,3,4,10)             0.3594                                         !
 ! D25   D(3,4,5,6)             -0.8125                                         !
 ! D26   D(3,4,5,11)           179.5539                                         !
 ! D27   D(10,4,5,6)           179.5746                                         !
 ! D28   D(10,4,5,11)           -0.059                                          !
 ! D29   D(4,5,6,1)             -0.2057                                         !
 ! D30   D(4,5,6,12)          -179.4735                                         !
 ! D31   D(11,5,6,1)           179.4234                                         !
 ! D32   D(11,5,6,12)            0.1555                                         !
 ! D33   D(1,7,8,13)             0.6457                                         !
 ! D34   D(1,7,8,15)           177.6617                                         !
 ! D35   D(16,7,8,13)         -168.4388                                         !
 ! D36   D(16,7,8,15)            8.5772                                         !
 ! D37   D(1,7,16,17)          -95.8875                                         !
 ! D38   D(1,7,16,19)           24.4887                                         !
 ! D39   D(1,7,16,20)          142.3175                                         !
 ! D40   D(8,7,16,17)           71.4998                                         !
 ! D41   D(8,7,16,19)         -168.1241                                         !
 ! D42   D(8,7,16,20)          -50.2953                                         !
 ! D43   D(7,8,13,2)            -2.3626                                         !
 ! D44   D(7,8,13,14)         -173.0352                                         !
 ! D45   D(15,8,13,2)         -179.7614                                         !
 ! D46   D(15,8,13,14)           9.566                                          !
 ! D47   D(7,8,15,40)           19.4501                                         !
 ! D48   D(7,8,15,41)         -159.3658                                         !
 ! D49   D(13,8,15,40)        -163.8886                                         !
 ! D50   D(13,8,15,41)          17.2955                                         !
 ! D51   D(8,15,40,52)          29.4717                                         !
 ! D52   D(8,15,40,53)         151.7162                                         !
 ! D53   D(8,15,40,54)         -92.1895                                         !
 ! D54   D(41,15,40,52)       -151.6938                                         !
 ! D55   D(41,15,40,53)        -29.4493                                         !
 ! D56   D(41,15,40,54)         86.645                                          !
 ! D57   D(8,15,41,42)        -140.0969                                         !
 ! D58   D(8,15,41,43)          42.9799                                         !
 ! D59   D(40,15,41,42)         41.0436                                         !
 ! D60   D(40,15,41,43)       -135.8796                                         !
 ! D61   D(7,16,17,18)          57.561                                          !
 ! D62   D(7,16,17,21)         178.186                                          !
 ! D63   D(7,16,17,22)         -63.5389                                         !
 ! D64   D(19,16,17,18)        -62.9473                                         !
 ! D65   D(19,16,17,21)         57.6777                                         !
 ! D66   D(19,16,17,22)        175.9528                                         !
 ! D67   D(20,16,17,18)       -178.1317                                         !
 ! D68   D(20,16,17,21)        -57.5067                                         !
 ! D69   D(20,16,17,22)         60.7684                                         !
 ! D70   D(16,17,18,23)        -87.3119                                         !
 ! D71   D(16,17,18,26)         94.6223                                         !
 ! D72   D(21,17,18,23)        151.8708                                         !
 ! D73   D(21,17,18,26)        -26.195                                          !
 ! D74   D(22,17,18,23)         35.0017                                         !
 ! D75   D(22,17,18,26)       -143.0641                                         !
 ! D76   D(17,18,23,24)          1.2843                                         !
 ! D77   D(17,18,23,25)       -178.8102                                         !
 ! D78   D(26,18,23,24)        179.3974                                         !
 ! D79   D(26,18,23,25)         -0.6972                                         !
 ! D80   D(18,23,25,27)       -169.204                                          !
 ! D81   D(24,23,25,27)         10.7026                                         !
 ! D82   D(23,25,27,28)       -108.2051                                         !
 ! D83   D(23,25,27,29)         74.2524                                         !
 ! D84   D(25,27,28,30)       -178.2041                                         !
 ! D85   D(25,27,28,31)          2.0198                                         !
 ! D86   D(29,27,28,30)         -0.7435                                         !
 ! D87   D(29,27,28,31)        179.4804                                         !
 ! D88   D(25,27,29,32)        178.5569                                         !
 ! D89   D(25,27,29,33)         -1.346                                          !
 ! D90   D(28,27,29,32)          1.0979                                         !
 ! D91   D(28,27,29,33)       -178.805                                          !
 ! D92   D(27,28,30,34)         -0.2636                                         !
 ! D93   D(27,28,30,35)       -179.8673                                         !
 ! D94   D(31,28,30,34)        179.5098                                         !
 ! D95   D(31,28,30,35)         -0.0939                                         !
 ! D96   D(27,29,32,34)         -0.4286                                         !
 ! D97   D(27,29,32,36)        179.8927                                         !
 ! D98   D(33,29,32,34)        179.4734                                         !
 ! D99   D(33,29,32,36)         -0.2054                                         !
 ! D100  D(28,30,34,32)          0.928                                          !
 ! D101  D(28,30,34,37)       -178.8042                                         !
 ! D102  D(35,30,34,32)       -179.462                                          !
 ! D103  D(35,30,34,37)          0.8057                                         !
 ! D104  D(29,32,34,30)         -0.5765                                         !
 ! D105  D(29,32,34,37)        179.1567                                         !
 ! D106  D(36,32,34,30)        179.1084                                         !
 ! D107  D(36,32,34,37)         -1.1585                                         !
 ! D108  D(30,34,37,38)        177.9176                                         !
 ! D109  D(30,34,37,39)         -1.675                                          !
 ! D110  D(32,34,37,38)         -1.8244                                         !
 ! D111  D(32,34,37,39)        178.5831                                         !
 ! D112  D(15,41,42,44)       -178.9525                                         !
 ! D113  D(15,41,42,45)          4.1355                                         !
 ! D114  D(43,41,42,44)         -2.0161                                         !
 ! D115  D(43,41,42,45)       -178.9281                                         !
 ! D116  D(15,41,43,46)        177.301                                          !
 ! D117  D(15,41,43,47)          1.8789                                         !
 ! D118  D(42,41,43,46)          0.2992                                         !
 ! D119  D(42,41,43,47)       -175.1229                                         !
 ! D120  D(41,42,44,48)          2.1137                                         !
 ! D121  D(41,42,44,49)       -178.0722                                         !
 ! D122  D(45,42,44,48)        179.0549                                         !
 ! D123  D(45,42,44,49)         -1.1311                                         !
 ! D124  D(41,43,46,48)          1.3169                                         !
 ! D125  D(41,43,46,50)       -177.9275                                         !
 ! D126  D(47,43,46,48)        176.6942                                         !
 ! D127  D(47,43,46,50)         -2.5502                                         !
 ! D128  D(42,44,48,46)         -0.4804                                         !
 ! D129  D(42,44,48,51)        178.9287                                         !
 ! D130  D(49,44,48,46)        179.7062                                         !
 ! D131  D(49,44,48,51)         -0.8847                                         !
 ! D132  D(43,46,48,44)         -1.2425                                         !
 ! D133  D(43,46,48,51)        179.3491                                         !
 ! D134  D(50,46,48,44)        177.9979                                         !
 ! D135  D(50,46,48,51)         -1.4105                                         !
 --------------------------------------------------------------------------------
 NAtoms=     54 NQM=       54 NQMF=       0 NMMI=      0 NMMIF=      0
                NMic=       0 NMicF=      0.
                    Isotopes and Nuclear Properties:
 (Nuclear quadrupole moments (NQMom) in fm**2, nuclear magnetic moments (NMagM)
  in nuclear magnetons)

  Atom         1           2           3           4           5           6           7           8           9          10
 IAtWgt=          12          12          12          12          12          12          12          12           1           1
 AtmWgt=  12.0000000  12.0000000  12.0000000  12.0000000  12.0000000  12.0000000  12.0000000  12.0000000   1.0078250   1.0078250
 NucSpn=           0           0           0           0           0           0           0           0           1           1
 AtZEff=   3.6000000   3.6000000   3.6000000   3.6000000   3.6000000   3.6000000   3.6000000   3.6000000   1.0000000   1.0000000
 NQMom=    0.0000000   0.0000000   0.0000000   0.0000000   0.0000000   0.0000000   0.0000000   0.0000000   0.0000000   0.0000000
 NMagM=    0.0000000   0.0000000   0.0000000   0.0000000   0.0000000   0.0000000   0.0000000   0.0000000   2.7928460   2.7928460
 AtZNuc=   6.0000000   6.0000000   6.0000000   6.0000000   6.0000000   6.0000000   6.0000000   6.0000000   1.0000000   1.0000000

  Atom        11          12          13          14          15          16          17          18          19          20
 IAtWgt=           1           1          14           1          12          12          12          14           1           1
 AtmWgt=   1.0078250   1.0078250  14.0030740   1.0078250  12.0000000  12.0000000  12.0000000  14.0030740   1.0078250   1.0078250
 NucSpn=           1           1           2           1           0           0           0           2           1           1
 AtZEff=   1.0000000   1.0000000   4.5500000   1.0000000   3.6000000   3.6000000   3.6000000   4.5500000   1.0000000   1.0000000
 NQMom=    0.0000000   0.0000000   2.0440000   0.0000000   0.0000000   0.0000000   0.0000000   2.0440000   0.0000000   0.0000000
 NMagM=    2.7928460   2.7928460   0.4037610   2.7928460   0.0000000   0.0000000   0.0000000   0.4037610   2.7928460   2.7928460
 AtZNuc=   1.0000000   1.0000000   7.0000000   1.0000000   6.0000000   6.0000000   6.0000000   7.0000000   1.0000000   1.0000000

  Atom        21          22          23          24          25          26          27          28          29          30
 IAtWgt=           1           1          12          16          16           1          12          12          12          12
 AtmWgt=   1.0078250   1.0078250  12.0000000  15.9949146  15.9949146   1.0078250  12.0000000  12.0000000  12.0000000  12.0000000
 NucSpn=           1           1           0           0           0           1           0           0           0           0
 AtZEff=   1.0000000   1.0000000   3.6000000   5.6000000   5.6000000   1.0000000   3.6000000   3.6000000   3.6000000   3.6000000
 NQMom=    0.0000000   0.0000000   0.0000000   0.0000000   0.0000000   0.0000000   0.0000000   0.0000000   0.0000000   0.0000000
 NMagM=    2.7928460   2.7928460   0.0000000   0.0000000   0.0000000   2.7928460   0.0000000   0.0000000   0.0000000   0.0000000
 AtZNuc=   1.0000000   1.0000000   6.0000000   8.0000000   8.0000000   1.0000000   6.0000000   6.0000000   6.0000000   6.0000000

  Atom        31          32          33          34          35          36          37          38          39          40
 IAtWgt=           1          12           1          12           1           1          14          16          16          12
 AtmWgt=   1.0078250  12.0000000   1.0078250  12.0000000   1.0078250   1.0078250  14.0030740  15.9949146  15.9949146  12.0000000
 NucSpn=           1           0           1           0           1           1           2           0           0           0
 AtZEff=   1.0000000   3.6000000   1.0000000   3.6000000   1.0000000   1.0000000   4.5500000   5.6000000   5.6000000   3.6000000
 NQMom=    0.0000000   0.0000000   0.0000000   0.0000000   0.0000000   0.0000000   2.0440000   0.0000000   0.0000000   0.0000000
 NMagM=    2.7928460   0.0000000   2.7928460   0.0000000   2.7928460   2.7928460   0.4037610   0.0000000   0.0000000   0.0000000
 AtZNuc=   1.0000000   6.0000000   1.0000000   6.0000000   1.0000000   1.0000000   7.0000000   8.0000000   8.0000000   6.0000000

  Atom        41          42          43          44          45          46          47          48          49          50
 IAtWgt=          12          12          12          12           1          12           1          12           1           1
 AtmWgt=  12.0000000  12.0000000  12.0000000  12.0000000   1.0078250  12.0000000   1.0078250  12.0000000   1.0078250   1.0078250
 NucSpn=           0           0           0           0           1           0           1           0           1           1
 AtZEff=   3.6000000   3.6000000   3.6000000   3.6000000   1.0000000   3.6000000   1.0000000   3.6000000   1.0000000   1.0000000
 NQMom=    0.0000000   0.0000000   0.0000000   0.0000000   0.0000000   0.0000000   0.0000000   0.0000000   0.0000000   0.0000000
 NMagM=    0.0000000   0.0000000   0.0000000   0.0000000   2.7928460   0.0000000   2.7928460   0.0000000   2.7928460   2.7928460
 AtZNuc=   6.0000000   6.0000000   6.0000000   6.0000000   1.0000000   6.0000000   1.0000000   6.0000000   1.0000000   1.0000000

  Atom        51          52          53          54
 IAtWgt=           1           1           1           1
 AtmWgt=   1.0078250   1.0078250   1.0078250   1.0078250
 NucSpn=           1           1           1           1
 AtZEff=   1.0000000   1.0000000   1.0000000   1.0000000
 NQMom=    0.0000000   0.0000000   0.0000000   0.0000000
 NMagM=    2.7928460   2.7928460   2.7928460   2.7928460
 AtZNuc=   1.0000000   1.0000000   1.0000000   1.0000000
 Leave Link  101 at Fri Mar 21 23:30:48 2025, MaxMem=  3758096384 cpu:               1.4 elap:               0.3
 (Enter /cm/shared/apps/spack/cpu/opt/spack/linux-centos8-zen/gcc-8.3.1/gaussian-16.C.01-po5bqktfeugvmjyga3v7eigbecnokxng/g16/l202.exe)
 Stoichiometry    C25H22N3O4(1+)
 Framework group  C1[X(C25H22N3O4)]
 Deg. of freedom   156
 Full point group                 C1      NOp   1
 RotChk:  IX=0 Diff= 1.88D-15
 Largest Abelian subgroup         C1      NOp   1
 Largest concise Abelian subgroup C1      NOp   1
                         Standard orientation:                         
 ---------------------------------------------------------------------
 Center     Atomic      Atomic             Coordinates (Angstroms)
 Number     Number       Type             X           Y           Z
 ---------------------------------------------------------------------
      1          6           0       -1.172622   -2.194433    1.117104
      2          6           0       -0.812202   -1.058785    1.920871
      3          6           0        0.173577   -1.136630    2.920550
      4          6           0        0.812717   -2.352639    3.075244
      5          6           0        0.500058   -3.487004    2.265688
      6          6           0       -0.474126   -3.420585    1.296724
      7          6           0       -2.217475   -1.805731    0.259896
      8          6           0       -2.476807   -0.414703    0.524433
      9          1           0        0.428726   -0.278590    3.534233
     10          1           0        1.584166   -2.451380    3.833233
     11          1           0        1.041749   -4.412623    2.430174
     12          1           0       -0.713640   -4.287730    0.690161
     13          7           0       -1.569489   -0.011409    1.520225
     14          1           0       -1.599417    0.894869    1.967592
     15          6           0       -3.362136    0.487714   -0.051152
     16          6           0       -2.732372   -2.648954   -0.861973
     17          6           0       -2.083239   -2.277615   -2.225971
     18          7           0       -0.636512   -2.380544   -2.227108
     19          1           0       -2.513958   -3.698985   -0.644801
     20          1           0       -3.816549   -2.572505   -0.974957
     21          1           0       -2.476051   -2.948452   -2.994462
     22          1           0       -2.347182   -1.253772   -2.500512
     23          6           0        0.148078   -1.344158   -1.838167
     24          8           0       -0.256207   -0.264635   -1.439382
     25          8           0        1.468872   -1.679288   -1.953502
     26          1           0       -0.182141   -3.225100   -2.548399
     27          6           0        2.384721   -0.799277   -1.371489
     28          6           0        3.174754   -0.008186   -2.198525
     29          6           0        2.513429   -0.780090    0.015895
     30          6           0        4.115872    0.843125   -1.620217
     31          1           0        3.050395   -0.057393   -3.274861
     32          6           0        3.445039    0.072294    0.597921
     33          1           0        1.892580   -1.425588    0.625533
     34          6           0        4.228038    0.875437   -0.231470
     35          1           0        4.750181    1.477881   -2.226801
     36          1           0        3.576583    0.120252    1.671866
     37          7           0        5.202253    1.792549    0.386431
     38          8           0        5.248982    1.825336    1.616837
     39          8           0        5.900556    2.471720   -0.363411
     40          6           0       -4.556131    0.035633   -0.836079
     41          6           0       -3.125242    1.922742    0.080268
     42          6           0       -4.185411    2.828749    0.309456
     43          6           0       -1.812279    2.430328   -0.088988
     44          6           0       -3.934735    4.192593    0.409044
     45          1           0       -5.195755    2.461852    0.459157
     46          6           0       -1.579809    3.800301   -0.022575
     47          1           0       -1.006818    1.749143   -0.344183
     48          6           0       -2.634192    4.682113    0.238632
     49          1           0       -4.751461    4.876935    0.616403
     50          1           0       -0.577052    4.182885   -0.186880
     51          1           0       -2.445977    5.749839    0.300010
     52          1           0       -4.945784   -0.927802   -0.506815
     53          1           0       -5.356032    0.776995   -0.776924
     54          1           0       -4.292977   -0.033402   -1.900665
 ---------------------------------------------------------------------
 Rotational constants (GHZ):           0.1703356           0.1056313           0.0856829
 Leave Link  202 at Fri Mar 21 23:30:48 2025, MaxMem=  3758096384 cpu:               1.2 elap:               0.2
 (Enter /cm/shared/apps/spack/cpu/opt/spack/linux-centos8-zen/gcc-8.3.1/gaussian-16.C.01-po5bqktfeugvmjyga3v7eigbecnokxng/g16/l301.exe)
 Standard basis: 6-311++G(d,p) (5D, 7F)
 Ernie: Thresh=  0.10000D-02 Tol=  0.10000D-05 Strict=F.
 There are   890 symmetry adapted cartesian basis functions of A   symmetry.
 There are   858 symmetry adapted basis functions of A   symmetry.
   858 basis functions,  1350 primitive gaussians,   890 cartesian basis functions
   112 alpha electrons      112 beta electrons
       nuclear repulsion energy      3178.3754533987 Hartrees.
 IExCor=  402 DFT=T Ex+Corr=B3LYP ExCW=0 ScaHFX=  0.200000
 ScaDFX=  0.800000  0.720000  1.000000  0.810000 ScalE2=  1.000000  1.000000
 IRadAn=      5 IRanWt=     -1 IRanGd=            0 ICorTp=0 IEmpDi=141
 NAtoms=   54 NActive=   54 NUniq=   54 SFac= 1.00D+00 NAtFMM=   60 NAOKFM=F Big=F
 Integral buffers will be    131072 words long.
 Raffenetti 2 integral format.
 Two-electron integral symmetry is turned on.
 R6Disp:  Grimme-D3(BJ) Dispersion energy=       -0.1336293739 Hartrees.
 Nuclear repulsion after empirical dispersion term =     3178.2418240249 Hartrees.
 ------------------------------------------------------------------------------
 Polarizable Continuum Model (PCM)
 =================================
 Model                : PCM.
 Atomic radii         : UFF (Universal Force Field).
 Polarization charges : Total charges.
 Charge compensation  : None.
 Solution method      : On-the-fly selection.
 Cavity type          : Scaled VdW (van der Waals Surface) (Alpha=1.100).
 Cavity algorithm     : GePol (No added spheres)
                        Default sphere list used, NSphG=   54.
                        Lebedev-Laikov grids with approx.  5.0 points / Ang**2.
                        Smoothing algorithm: York/Karplus (Gamma=1.0000).
                        Polarization charges: spherical gaussians, with
                                              point-specific exponents (IZeta= 3).
                        Self-potential: point-specific (ISelfS= 7).
                        Self-field    : sphere-specific E.n sum rule (ISelfD= 2).
 Solvent              : Toluene, Eps=   2.374100 Eps(inf)=   2.238315
 ------------------------------------------------------------------------------
 GePol: Number of generator spheres                  =      54
 GePol: Total number of spheres                      =      54
 GePol: Number of exposed spheres                    =      54 (100.00%)
 GePol: Number of points                             =    3783
 GePol: Average weight of points                     =       0.13
 GePol: Minimum weight of points                     =   0.10D-10
 GePol: Maximum weight of points                     =    0.20577
 GePol: Number of points with low weight             =     286
 GePol: Fraction of low-weight points (<1% of avg)   =       7.56%
 GePol: Cavity surface area                          =    480.115 Ang**2
 GePol: Cavity volume                                =    565.992 Ang**3
 Leave Link  301 at Fri Mar 21 23:30:48 2025, MaxMem=  3758096384 cpu:               0.8 elap:               0.1
 (Enter /cm/shared/apps/spack/cpu/opt/spack/linux-centos8-zen/gcc-8.3.1/gaussian-16.C.01-po5bqktfeugvmjyga3v7eigbecnokxng/g16/l302.exe)
 NPDir=0 NMtPBC=     1 NCelOv=     1 NCel=       1 NClECP=     1 NCelD=      1
         NCelK=      1 NCelE2=     1 NClLst=     1 CellRange=     0.0.
 One-electron integrals computed using PRISM.
 One-electron integral symmetry used in STVInt
 NBasis=   858 RedAO= T EigKep=  1.36D-06  NBF=   858
 NBsUse=   849 1.00D-06 EigRej=  9.25D-07 NBFU=   849
 Precomputing XC quadrature grid using
 IXCGrd= 4 IRadAn=           5 IRanWt=          -1 IRanGd=           0 AccXCQ= 0.00D+00.
 Generated NRdTot=       0 NPtTot=           0 NUsed=           0 NTot=          32
 NSgBfM=   877   877   877   877   877 MxSgAt=    54 MxSgA2=    54.
 Leave Link  302 at Fri Mar 21 23:30:50 2025, MaxMem=  3758096384 cpu:              33.1 elap:               2.5
 (Enter /cm/shared/apps/spack/cpu/opt/spack/linux-centos8-zen/gcc-8.3.1/gaussian-16.C.01-po5bqktfeugvmjyga3v7eigbecnokxng/g16/l303.exe)
 DipDrv:  MaxL=1.
 Leave Link  303 at Fri Mar 21 23:30:51 2025, MaxMem=  3758096384 cpu:               3.5 elap:               0.5
 (Enter /cm/shared/apps/spack/cpu/opt/spack/linux-centos8-zen/gcc-8.3.1/gaussian-16.C.01-po5bqktfeugvmjyga3v7eigbecnokxng/g16/l401.exe)
 ExpMin= 3.60D-02 ExpMax= 8.59D+03 ExpMxC= 1.30D+03 IAcc=3 IRadAn=         5 AccDes= 0.00D+00
 Harris functional with IExCor=  402 and IRadAn=       5 diagonalized for initial guess.
 HarFok:  IExCor=  402 AccDes= 0.00D+00 IRadAn=         5 IDoV= 1 UseB2=F ITyADJ=14
 ICtDFT=  3500011 ScaDFX=  1.000000  1.000000  1.000000  1.000000
 FoFCou: FMM=F IPFlag=           0 FMFlag=      100000 FMFlg1=           0
         NFxFlg=           0 DoJE=T BraDBF=F KetDBF=T FulRan=T
         wScrn=  0.000000 ICntrl=       500 IOpCl=  0 I1Cent=   200000004 NGrid=           0
         NMat0=    1 NMatS0=      1 NMatT0=    0 NMatD0=    1 NMtDS0=    0 NMtDT0=    0
 Petite list used in FoFCou.
 Harris En= -1431.31984417680    
 JPrj=0 DoOrth=F DoCkMO=F.
 Leave Link  401 at Fri Mar 21 23:30:55 2025, MaxMem=  3758096384 cpu:              62.8 elap:               4.0
 (Enter /cm/shared/apps/spack/cpu/opt/spack/linux-centos8-zen/gcc-8.3.1/gaussian-16.C.01-po5bqktfeugvmjyga3v7eigbecnokxng/g16/l502.exe)
 Integral symmetry usage will be decided dynamically.
 Closed shell SCF:
 Using DIIS extrapolation, IDIIS=  1040.
 NGot=  3758096384 LenX=  3756488362 LenY=  3755695372
 Requested convergence on RMS density matrix=1.00D-08 within 128 cycles.
 Requested convergence on MAX density matrix=1.00D-06.
 Requested convergence on             energy=1.00D-06.
 No special actions if energy rises.
 Fock matrices will be formed incrementally for  20 cycles.

 Cycle   1  Pass 1  IDiag  1:
 FoFJK:  IHMeth= 1 ICntrl=       0 DoSepK=F KAlg= 0 I1Cent=           0 FoldK=F
 IRaf= 780000000 NMat=       1 IRICut=       1 DoRegI=T DoRafI=F ISym2E= 0 IDoP0=0 IntGTp=1.
 FoFCou: FMM=F IPFlag=           0 FMFlag=      100000 FMFlg1=           0
         NFxFlg=           0 DoJE=F BraDBF=F KetDBF=F FulRan=T
         wScrn=  0.000000 ICntrl=         0 IOpCl=  0 I1Cent=           0 NGrid=           0
         NMat0=    1 NMatS0=      1 NMatT0=    0 NMatD0=    1 NMtDS0=    0 NMtDT0=    0
 Symmetry not used in FoFCou.
 Inv3:  Mode=1 IEnd=    42933267.
 Iteration    1 A*A^-1 deviation from unit magnitude is 3.33D-15 for   2794.
 Iteration    1 A*A^-1 deviation from orthogonality  is 2.33D-15 for   2156    817.
 Iteration    1 A^-1*A deviation from unit magnitude is 3.33D-15 for   2794.
 Iteration    1 A^-1*A deviation from orthogonality  is 8.88D-15 for   2804   2787.
 E= -1430.55655172049    
 DIIS: error= 4.98D-02 at cycle   1 NSaved=   1.
 NSaved= 1 IEnMin= 1 EnMin= -1430.55655172049     IErMin= 1 ErrMin= 4.98D-02
 ErrMax= 4.98D-02  0.00D+00 EMaxC= 1.00D-01 BMatC= 9.47D-01 BMatP= 9.47D-01
 IDIUse=3 WtCom= 5.02D-01 WtEn= 4.98D-01
 Coeff-Com:  0.100D+01
 Coeff-En:   0.100D+01
 Coeff:      0.100D+01
 Gap=     0.098 Goal=   None    Shift=    0.000
 GapD=    0.098 DampG=0.500 DampE=0.500 DampFc=0.2500 IDamp=-1.
 Damping current iteration by 2.50D-01
 RMSDP=1.77D-02 MaxDP=1.82D+00              OVMax= 3.58D-01

 Cycle   2  Pass 1  IDiag  1:
 RMSU=  4.35D-03    CP:  9.84D-01
 E= -1430.82723190203     Delta-E=       -0.270680181536 Rises=F Damp=T
 DIIS: error= 1.34D-02 at cycle   2 NSaved=   2.
 NSaved= 2 IEnMin= 2 EnMin= -1430.82723190203     IErMin= 2 ErrMin= 1.34D-02
 ErrMax= 1.34D-02  0.00D+00 EMaxC= 1.00D-01 BMatC= 2.15D-01 BMatP= 9.47D-01
 IDIUse=3 WtCom= 8.66D-01 WtEn= 1.34D-01
 Coeff-Com: -0.626D+00 0.163D+01
 Coeff-En:   0.000D+00 0.100D+01
 Coeff:     -0.541D+00 0.154D+01
 Gap=     0.192 Goal=   None    Shift=    0.000
 RMSDP=6.23D-03 MaxDP=1.01D+00 DE=-2.71D-01 OVMax= 2.65D-01

 Cycle   3  Pass 1  IDiag  1:
 RMSU=  4.60D-03    CP:  8.93D-01  1.02D+00
 E= -1431.25414040738     Delta-E=       -0.426908505350 Rises=F Damp=F
 DIIS: error= 1.27D-02 at cycle   3 NSaved=   3.
 NSaved= 3 IEnMin= 3 EnMin= -1431.25414040738     IErMin= 3 ErrMin= 1.27D-02
 ErrMax= 1.27D-02  0.00D+00 EMaxC= 1.00D-01 BMatC= 7.25D-02 BMatP= 2.15D-01
 IDIUse=3 WtCom= 8.73D-01 WtEn= 1.27D-01
 Coeff-Com: -0.369D+00 0.825D+00 0.544D+00
 Coeff-En:   0.000D+00 0.000D+00 0.100D+01
 Coeff:     -0.322D+00 0.720D+00 0.602D+00
 Gap=     0.098 Goal=   None    Shift=    0.000
 RMSDP=3.20D-03 MaxDP=4.22D-01 DE=-4.27D-01 OVMax= 6.98D-02

 Cycle   4  Pass 1  IDiag  1:
 RMSU=  2.64D-03    CP:  9.00D-01  1.27D+00  6.90D-01
 E= -1431.29642159628     Delta-E=       -0.042281188907 Rises=F Damp=F
 DIIS: error= 3.63D-03 at cycle   4 NSaved=   4.
 NSaved= 4 IEnMin= 4 EnMin= -1431.29642159628     IErMin= 4 ErrMin= 3.63D-03
 ErrMax= 3.63D-03  0.00D+00 EMaxC= 1.00D-01 BMatC= 2.23D-02 BMatP= 7.25D-02
 IDIUse=3 WtCom= 9.64D-01 WtEn= 3.63D-02
 Coeff-Com: -0.105D+00 0.226D+00 0.373D+00 0.506D+00
 Coeff-En:   0.000D+00 0.000D+00 0.264D+00 0.736D+00
 Coeff:     -0.101D+00 0.218D+00 0.369D+00 0.514D+00
 Gap=     0.102 Goal=   None    Shift=    0.000
 RMSDP=1.58D-03 MaxDP=1.74D-01 DE=-4.23D-02 OVMax= 4.32D-02

 Cycle   5  Pass 1  IDiag  1:
 RMSU=  7.19D-04    CP:  8.89D-01  1.23D+00  7.25D-01  5.16D-01
 E= -1431.31382869402     Delta-E=       -0.017407097739 Rises=F Damp=F
 DIIS: error= 1.54D-03 at cycle   5 NSaved=   5.
 NSaved= 5 IEnMin= 5 EnMin= -1431.31382869402     IErMin= 5 ErrMin= 1.54D-03
 ErrMax= 1.54D-03  0.00D+00 EMaxC= 1.00D-01 BMatC= 1.62D-03 BMatP= 2.23D-02
 IDIUse=3 WtCom= 9.85D-01 WtEn= 1.54D-02
 Coeff-Com: -0.271D-01 0.551D-01 0.172D+00 0.311D+00 0.489D+00
 Coeff-En:   0.000D+00 0.000D+00 0.000D+00 0.000D+00 0.100D+01
 Coeff:     -0.266D-01 0.542D-01 0.169D+00 0.306D+00 0.497D+00
 Gap=     0.100 Goal=   None    Shift=    0.000
 RMSDP=5.70D-04 MaxDP=8.03D-02 DE=-1.74D-02 OVMax= 1.72D-02

 Cycle   6  Pass 1  IDiag  1:
 RMSU=  3.66D-04    CP:  8.81D-01  1.24D+00  7.15D-01  5.54D-01  7.57D-01
 E= -1431.31510217784     Delta-E=       -0.001273483812 Rises=F Damp=F
 DIIS: error= 6.41D-04 at cycle   6 NSaved=   6.
 NSaved= 6 IEnMin= 6 EnMin= -1431.31510217784     IErMin= 6 ErrMin= 6.41D-04
 ErrMax= 6.41D-04  0.00D+00 EMaxC= 1.00D-01 BMatC= 2.59D-04 BMatP= 1.62D-03
 IDIUse=3 WtCom= 9.94D-01 WtEn= 6.41D-03
 Coeff-Com: -0.475D-02 0.773D-02 0.596D-01 0.126D+00 0.326D+00 0.486D+00
 Coeff-En:   0.000D+00 0.000D+00 0.000D+00 0.000D+00 0.157D+00 0.843D+00
 Coeff:     -0.472D-02 0.768D-02 0.593D-01 0.126D+00 0.324D+00 0.488D+00
 Gap=     0.101 Goal=   None    Shift=    0.000
 RMSDP=2.02D-04 MaxDP=1.77D-02 DE=-1.27D-03 OVMax= 7.59D-03

 Cycle   7  Pass 1  IDiag  1:
 RMSU=  1.12D-04    CP:  8.82D-01  1.23D+00  7.24D-01  5.65D-01  8.10D-01
                    CP:  6.57D-01
 E= -1431.31533173413     Delta-E=       -0.000229556296 Rises=F Damp=F
 DIIS: error= 1.19D-04 at cycle   7 NSaved=   7.
 NSaved= 7 IEnMin= 7 EnMin= -1431.31533173413     IErMin= 7 ErrMin= 1.19D-04
 ErrMax= 1.19D-04  0.00D+00 EMaxC= 1.00D-01 BMatC= 2.36D-05 BMatP= 2.59D-04
 IDIUse=3 WtCom= 9.99D-01 WtEn= 1.19D-03
 Coeff-Com: -0.903D-03 0.656D-03 0.218D-01 0.504D-01 0.162D+00 0.307D+00
 Coeff-Com:  0.459D+00
 Coeff-En:   0.000D+00 0.000D+00 0.000D+00 0.000D+00 0.000D+00 0.387D-01
 Coeff-En:   0.961D+00
 Coeff:     -0.902D-03 0.656D-03 0.217D-01 0.503D-01 0.162D+00 0.306D+00
 Coeff:      0.460D+00
 Gap=     0.101 Goal=   None    Shift=    0.000
 RMSDP=6.34D-05 MaxDP=5.25D-03 DE=-2.30D-04 OVMax= 2.39D-03

 Cycle   8  Pass 1  IDiag  1:
 RMSU=  2.82D-05    CP:  8.83D-01  1.23D+00  7.26D-01  5.66D-01  7.88D-01
                    CP:  6.29D-01  6.15D-01
 E= -1431.31535315846     Delta-E=       -0.000021424329 Rises=F Damp=F
 DIIS: error= 3.31D-05 at cycle   8 NSaved=   8.
 NSaved= 8 IEnMin= 8 EnMin= -1431.31535315846     IErMin= 8 ErrMin= 3.31D-05
 ErrMax= 3.31D-05  0.00D+00 EMaxC= 1.00D-01 BMatC= 2.36D-06 BMatP= 2.36D-05
 IDIUse=1 WtCom= 1.00D+00 WtEn= 0.00D+00
 Coeff-Com:  0.107D-03-0.750D-03 0.688D-02 0.177D-01 0.676D-01 0.137D+00
 Coeff-Com:  0.282D+00 0.490D+00
 Coeff:      0.107D-03-0.750D-03 0.688D-02 0.177D-01 0.676D-01 0.137D+00
 Coeff:      0.282D+00 0.490D+00
 Gap=     0.101 Goal=   None    Shift=    0.000
 RMSDP=1.74D-05 MaxDP=1.32D-03 DE=-2.14D-05 OVMax= 7.16D-04

 Cycle   9  Pass 1  IDiag  1:
 RMSU=  1.39D-05    CP:  8.83D-01  1.23D+00  7.25D-01  5.66D-01  7.97D-01
                    CP:  6.28D-01  6.53D-01  8.08D-01
 E= -1431.31535498919     Delta-E=       -0.000001830728 Rises=F Damp=F
 DIIS: error= 2.37D-05 at cycle   9 NSaved=   9.
 NSaved= 9 IEnMin= 9 EnMin= -1431.31535498919     IErMin= 9 ErrMin= 2.37D-05
 ErrMax= 2.37D-05  0.00D+00 EMaxC= 1.00D-01 BMatC= 3.96D-07 BMatP= 2.36D-06
 IDIUse=1 WtCom= 1.00D+00 WtEn= 0.00D+00
 Coeff-Com:  0.182D-03-0.466D-03 0.422D-03 0.191D-02 0.132D-01 0.293D-01
 Coeff-Com:  0.918D-01 0.315D+00 0.549D+00
 Coeff:      0.182D-03-0.466D-03 0.422D-03 0.191D-02 0.132D-01 0.293D-01
 Coeff:      0.918D-01 0.315D+00 0.549D+00
 Gap=     0.101 Goal=   None    Shift=    0.000
 RMSDP=7.26D-06 MaxDP=8.57D-04 DE=-1.83D-06 OVMax= 2.77D-04

 Cycle  10  Pass 1  IDiag  1:
 RMSU=  4.24D-06    CP:  8.83D-01  1.23D+00  7.25D-01  5.66D-01  7.98D-01
                    CP:  6.33D-01  6.49D-01  8.29D-01  7.62D-01
 E= -1431.31535523097     Delta-E=       -0.000000241785 Rises=F Damp=F
 DIIS: error= 1.78D-05 at cycle  10 NSaved=  10.
 NSaved=10 IEnMin=10 EnMin= -1431.31535523097     IErMin=10 ErrMin= 1.78D-05
 ErrMax= 1.78D-05  0.00D+00 EMaxC= 1.00D-01 BMatC= 9.32D-08 BMatP= 3.96D-07
 IDIUse=1 WtCom= 1.00D+00 WtEn= 0.00D+00
 Coeff-Com:  0.113D-03-0.248D-03-0.268D-03-0.207D-03 0.325D-02 0.819D-02
 Coeff-Com:  0.378D-01 0.171D+00 0.389D+00 0.391D+00
 Coeff:      0.113D-03-0.248D-03-0.268D-03-0.207D-03 0.325D-02 0.819D-02
 Coeff:      0.378D-01 0.171D+00 0.389D+00 0.391D+00
 Gap=     0.101 Goal=   None    Shift=    0.000
 RMSDP=2.43D-06 MaxDP=2.89D-04 DE=-2.42D-07 OVMax= 1.64D-04

 Cycle  11  Pass 1  IDiag  1:
 RMSU=  1.92D-06    CP:  8.83D-01  1.23D+00  7.25D-01  5.66D-01  7.99D-01
                    CP:  6.33D-01  6.50D-01  8.44D-01  7.38D-01  7.14D-01
 E= -1431.31535529758     Delta-E=       -0.000000066603 Rises=F Damp=F
 DIIS: error= 6.24D-06 at cycle  11 NSaved=  11.
 NSaved=11 IEnMin=11 EnMin= -1431.31535529758     IErMin=11 ErrMin= 6.24D-06
 ErrMax= 6.24D-06  0.00D+00 EMaxC= 1.00D-01 BMatC= 1.29D-08 BMatP= 9.32D-08
 IDIUse=1 WtCom= 1.00D+00 WtEn= 0.00D+00
 Coeff-Com:  0.497D-04-0.963D-04-0.260D-03-0.515D-03-0.231D-03 0.263D-03
 Coeff-Com:  0.888D-02 0.588D-01 0.171D+00 0.284D+00 0.478D+00
 Coeff:      0.497D-04-0.963D-04-0.260D-03-0.515D-03-0.231D-03 0.263D-03
 Coeff:      0.888D-02 0.588D-01 0.171D+00 0.284D+00 0.478D+00
 Gap=     0.101 Goal=   None    Shift=    0.000
 RMSDP=1.33D-06 MaxDP=1.43D-04 DE=-6.66D-08 OVMax= 5.12D-05

 Cycle  12  Pass 1  IDiag  1:
 RMSU=  6.40D-07    CP:  8.83D-01  1.23D+00  7.25D-01  5.66D-01  7.99D-01
                    CP:  6.32D-01  6.53D-01  8.49D-01  7.67D-01  6.74D-01
                    CP:  6.61D-01
 E= -1431.31535530630     Delta-E=       -0.000000008719 Rises=F Damp=F
 DIIS: error= 1.32D-06 at cycle  12 NSaved=  12.
 NSaved=12 IEnMin=12 EnMin= -1431.31535530630     IErMin=12 ErrMin= 1.32D-06
 ErrMax= 1.32D-06  0.00D+00 EMaxC= 1.00D-01 BMatC= 1.41D-09 BMatP= 1.29D-08
 IDIUse=1 WtCom= 1.00D+00 WtEn= 0.00D+00
 Coeff-Com:  0.125D-04-0.190D-04-0.130D-03-0.323D-03-0.712D-03-0.113D-02
 Coeff-Com: -0.143D-03 0.102D-01 0.494D-01 0.121D+00 0.304D+00 0.518D+00
 Coeff:      0.125D-04-0.190D-04-0.130D-03-0.323D-03-0.712D-03-0.113D-02
 Coeff:     -0.143D-03 0.102D-01 0.494D-01 0.121D+00 0.304D+00 0.518D+00
 Gap=     0.101 Goal=   None    Shift=    0.000
 RMSDP=3.77D-07 MaxDP=3.60D-05 DE=-8.72D-09 OVMax= 1.19D-05

 Cycle  13  Pass 1  IDiag  1:
 RMSU=  2.77D-07    CP:  8.83D-01  1.23D+00  7.25D-01  5.66D-01  7.99D-01
                    CP:  6.32D-01  6.54D-01  8.50D-01  7.67D-01  6.97D-01
                    CP:  6.74D-01  7.40D-01
 E= -1431.31535530762     Delta-E=       -0.000000001325 Rises=F Damp=F
 DIIS: error= 4.29D-07 at cycle  13 NSaved=  13.
 NSaved=13 IEnMin=13 EnMin= -1431.31535530762     IErMin=13 ErrMin= 4.29D-07
 ErrMax= 4.29D-07  0.00D+00 EMaxC= 1.00D-01 BMatC= 1.39D-10 BMatP= 1.41D-09
 IDIUse=1 WtCom= 1.00D+00 WtEn= 0.00D+00
 Coeff-Com:  0.127D-05 0.327D-06-0.428D-04-0.125D-03-0.386D-03-0.661D-03
 Coeff-Com: -0.106D-02-0.115D-02 0.881D-02 0.358D-01 0.115D+00 0.298D+00
 Coeff-Com:  0.546D+00
 Coeff:      0.127D-05 0.327D-06-0.428D-04-0.125D-03-0.386D-03-0.661D-03
 Coeff:     -0.106D-02-0.115D-02 0.881D-02 0.358D-01 0.115D+00 0.298D+00
 Coeff:      0.546D+00
 Gap=     0.101 Goal=   None    Shift=    0.000
 RMSDP=2.15D-07 MaxDP=1.41D-05 DE=-1.33D-09 OVMax= 4.96D-06

 Cycle  14  Pass 1  IDiag  1:
 RMSU=  9.35D-08    CP:  8.83D-01  1.23D+00  7.25D-01  5.66D-01  7.99D-01
                    CP:  6.32D-01  6.54D-01  8.51D-01  7.73D-01  7.05D-01
                    CP:  6.81D-01  7.79D-01  5.89D-01
 E= -1431.31535530776     Delta-E=       -0.000000000141 Rises=F Damp=F
 DIIS: error= 1.19D-07 at cycle  14 NSaved=  14.
 NSaved=14 IEnMin=14 EnMin= -1431.31535530776     IErMin=14 ErrMin= 1.19D-07
 ErrMax= 1.19D-07  0.00D+00 EMaxC= 1.00D-01 BMatC= 1.29D-11 BMatP= 1.39D-10
 IDIUse=1 WtCom= 1.00D+00 WtEn= 0.00D+00
 Coeff-Com: -0.946D-06 0.228D-05-0.469D-05-0.215D-04-0.103D-03-0.178D-03
 Coeff-Com: -0.525D-03-0.207D-02-0.244D-02 0.126D-02 0.157D-01 0.794D-01
 Coeff-Com:  0.281D+00 0.628D+00
 Coeff:     -0.946D-06 0.228D-05-0.469D-05-0.215D-04-0.103D-03-0.178D-03
 Coeff:     -0.525D-03-0.207D-02-0.244D-02 0.126D-02 0.157D-01 0.794D-01
 Coeff:      0.281D+00 0.628D+00
 Gap=     0.101 Goal=   None    Shift=    0.000
 RMSDP=4.67D-08 MaxDP=5.43D-06 DE=-1.41D-10 OVMax= 1.53D-06

 Cycle  15  Pass 1  IDiag  1:
 RMSU=  3.01D-08    CP:  8.83D-01  1.23D+00  7.25D-01  5.66D-01  7.99D-01
                    CP:  6.32D-01  6.54D-01  8.51D-01  7.74D-01  7.07D-01
                    CP:  6.81D-01  7.74D-01  6.64D-01  8.93D-01
 E= -1431.31535530780     Delta-E=       -0.000000000040 Rises=F Damp=F
 DIIS: error= 4.02D-08 at cycle  15 NSaved=  15.
 NSaved=15 IEnMin=15 EnMin= -1431.31535530780     IErMin=15 ErrMin= 4.02D-08
 ErrMax= 4.02D-08  0.00D+00 EMaxC= 1.00D-01 BMatC= 2.14D-12 BMatP= 1.29D-11
 IDIUse=1 WtCom= 1.00D+00 WtEn= 0.00D+00
 Coeff-Com: -0.650D-06 0.125D-05 0.182D-05 0.113D-05-0.164D-04-0.308D-04
 Coeff-Com: -0.190D-03-0.102D-02-0.233D-02-0.322D-02-0.399D-02 0.103D-01
 Coeff-Com:  0.992D-01 0.363D+00 0.538D+00
 Coeff:     -0.650D-06 0.125D-05 0.182D-05 0.113D-05-0.164D-04-0.308D-04
 Coeff:     -0.190D-03-0.102D-02-0.233D-02-0.322D-02-0.399D-02 0.103D-01
 Coeff:      0.992D-01 0.363D+00 0.538D+00
 Gap=     0.101 Goal=   None    Shift=    0.000
 RMSDP=2.36D-08 MaxDP=2.55D-06 DE=-4.00D-11 OVMax= 5.63D-07

 Cycle  16  Pass 1  IDiag  1:
 RMSU=  1.17D-08    CP:  8.83D-01  1.23D+00  7.25D-01  5.66D-01  7.99D-01
                    CP:  6.32D-01  6.54D-01  8.51D-01  7.73D-01  7.06D-01
                    CP:  6.83D-01  7.88D-01  6.63D-01  9.52D-01  6.50D-01
 E= -1431.31535530779     Delta-E=        0.000000000015 Rises=F Damp=F
 DIIS: error= 1.50D-08 at cycle  16 NSaved=  16.
 NSaved=16 IEnMin=15 EnMin= -1431.31535530780     IErMin=16 ErrMin= 1.50D-08
 ErrMax= 1.50D-08  0.00D+00 EMaxC= 1.00D-01 BMatC= 2.13D-13 BMatP= 2.14D-12
 IDIUse=1 WtCom= 1.00D+00 WtEn= 0.00D+00
 Coeff-Com: -0.262D-06 0.472D-06 0.130D-05 0.248D-05 0.136D-05 0.275D-06
 Coeff-Com: -0.522D-04-0.305D-03-0.981D-03-0.185D-02-0.381D-02-0.364D-02
 Coeff-Com:  0.234D-01 0.133D+00 0.292D+00 0.563D+00
 Coeff:     -0.262D-06 0.472D-06 0.130D-05 0.248D-05 0.136D-05 0.275D-06
 Coeff:     -0.522D-04-0.305D-03-0.981D-03-0.185D-02-0.381D-02-0.364D-02
 Coeff:      0.234D-01 0.133D+00 0.292D+00 0.563D+00
 Gap=     0.101 Goal=   None    Shift=    0.000
 RMSDP=6.48D-09 MaxDP=7.03D-07 DE= 1.55D-11 OVMax= 2.81D-07

 Error on total polarization charges =  0.03343
 SCF Done:  E(RB3LYP) =  -1431.31535531     A.U. after   16 cycles
            NFock= 16  Conv=0.65D-08     -V/T= 2.0044
 KE= 1.425053445477D+03 PE=-9.664744858747D+03 EE= 3.630134233937D+03
 Leave Link  502 at Fri Mar 21 23:38:21 2025, MaxMem=  3758096384 cpu:            7069.6 elap:             445.6
 (Enter /cm/shared/apps/spack/cpu/opt/spack/linux-centos8-zen/gcc-8.3.1/gaussian-16.C.01-po5bqktfeugvmjyga3v7eigbecnokxng/g16/l601.exe)
 Copying SCF densities to generalized density rwf, IOpCl= 0 IROHF=0.

 **********************************************************************

            Population analysis using the SCF Density.

 **********************************************************************

 Orbital symmetries:
       Occupied  (A) (A) (A) (A) (A) (A) (A) (A) (A) (A) (A) (A)
                 (A) (A) (A) (A) (A) (A) (A) (A) (A) (A) (A) (A)
                 (A) (A) (A) (A) (A) (A) (A) (A) (A) (A) (A) (A)
                 (A) (A) (A) (A) (A) (A) (A) (A) (A) (A) (A) (A)
                 (A) (A) (A) (A) (A) (A) (A) (A) (A) (A) (A) (A)
                 (A) (A) (A) (A) (A) (A) (A) (A) (A) (A) (A) (A)
                 (A) (A) (A) (A) (A) (A) (A) (A) (A) (A) (A) (A)
                 (A) (A) (A) (A) (A) (A) (A) (A) (A) (A) (A) (A)
                 (A) (A) (A) (A) (A) (A) (A) (A) (A) (A) (A) (A)
                 (A) (A) (A) (A)
       Virtual   (A) (A) (A) (A) (A) (A) (A) (A) (A) (A) (A) (A)
                 (A) (A) (A) (A) (A) (A) (A) (A) (A) (A) (A) (A)
                 (A) (A) (A) (A) (A) (A) (A) (A) (A) (A) (A) (A)
                 (A) (A) (A) (A) (A) (A) (A) (A) (A) (A) (A) (A)
                 (A) (A) (A) (A) (A) (A) (A) (A) (A) (A) (A) (A)
                 (A) (A) (A) (A) (A) (A) (A) (A) (A) (A) (A) (A)
                 (A) (A) (A) (A) (A) (A) (A) (A) (A) (A) (A) (A)
                 (A) (A) (A) (A) (A) (A) (A) (A) (A) (A) (A) (A)
                 (A) (A) (A) (A) (A) (A) (A) (A) (A) (A) (A) (A)
                 (A) (A) (A) (A) (A) (A) (A) (A) (A) (A) (A) (A)
                 (A) (A) (A) (A) (A) (A) (A) (A) (A) (A) (A) (A)
                 (A) (A) (A) (A) (A) (A) (A) (A) (A) (A) (A) (A)
                 (A) (A) (A) (A) (A) (A) (A) (A) (A) (A) (A) (A)
                 (A) (A) (A) (A) (A) (A) (A) (A) (A) (A) (A) (A)
                 (A) (A) (A) (A) (A) (A) (A) (A) (A) (A) (A) (A)
                 (A) (A) (A) (A) (A) (A) (A) (A) (A) (A) (A) (A)
                 (A) (A) (A) (A) (A) (A) (A) (A) (A) (A) (A) (A)
                 (A) (A) (A) (A) (A) (A) (A) (A) (A) (A) (A) (A)
                 (A) (A) (A) (A) (A) (A) (A) (A) (A) (A) (A) (A)
                 (A) (A) (A) (A) (A) (A) (A) (A) (A) (A) (A) (A)
                 (A) (A) (A) (A) (A) (A) (A) (A) (A) (A) (A) (A)
                 (A) (A) (A) (A) (A) (A) (A) (A) (A) (A) (A) (A)
                 (A) (A) (A) (A) (A) (A) (A) (A) (A) (A) (A) (A)
                 (A) (A) (A) (A) (A) (A) (A) (A) (A) (A) (A) (A)
                 (A) (A) (A) (A) (A) (A) (A) (A) (A) (A) (A) (A)
                 (A) (A) (A) (A) (A) (A) (A) (A) (A) (A) (A) (A)
                 (A) (A) (A) (A) (A) (A) (A) (A) (A) (A) (A) (A)
                 (A) (A) (A) (A) (A) (A) (A) (A) (A) (A) (A) (A)
                 (A) (A) (A) (A) (A) (A) (A) (A) (A) (A) (A) (A)
                 (A) (A) (A) (A) (A) (A) (A) (A) (A) (A) (A) (A)
                 (A) (A) (A) (A) (A) (A) (A) (A) (A) (A) (A) (A)
                 (A) (A) (A) (A) (A) (A) (A) (A) (A) (A) (A) (A)
                 (A) (A) (A) (A) (A) (A) (A) (A) (A) (A) (A) (A)
                 (A) (A) (A) (A) (A) (A) (A) (A) (A) (A) (A) (A)
                 (A) (A) (A) (A) (A) (A) (A) (A) (A) (A) (A) (A)
                 (A) (A) (A) (A) (A) (A) (A) (A) (A) (A) (A) (A)
                 (A) (A) (A) (A) (A) (A) (A) (A) (A) (A) (A) (A)
                 (A) (A) (A) (A) (A) (A) (A) (A) (A) (A) (A) (A)
                 (A) (A) (A) (A) (A) (A) (A) (A) (A) (A) (A) (A)
                 (A) (A) (A) (A) (A) (A) (A) (A) (A) (A) (A) (A)
                 (A) (A) (A) (A) (A) (A) (A) (A) (A) (A) (A) (A)
                 (A) (A) (A) (A) (A) (A) (A) (A) (A) (A) (A) (A)
                 (A) (A) (A) (A) (A) (A) (A) (A) (A) (A) (A) (A)
                 (A) (A) (A) (A) (A) (A) (A) (A) (A) (A) (A) (A)
                 (A) (A) (A) (A) (A) (A) (A) (A) (A) (A) (A) (A)
                 (A) (A) (A) (A) (A) (A) (A) (A) (A) (A) (A) (A)
                 (A) (A) (A) (A) (A) (A) (A) (A) (A) (A) (A) (A)
                 (A) (A) (A) (A) (A) (A) (A) (A) (A) (A) (A) (A)
                 (A) (A) (A) (A) (A) (A) (A) (A) (A) (A) (A) (A)
                 (A) (A) (A) (A) (A) (A) (A) (A) (A) (A) (A) (A)
                 (A) (A) (A) (A) (A) (A) (A) (A) (A) (A) (A) (A)
                 (A) (A) (A) (A) (A) (A) (A) (A) (A) (A) (A) (A)
                 (A) (A) (A) (A) (A) (A) (A) (A) (A) (A) (A) (A)
                 (A) (A) (A) (A) (A) (A) (A) (A) (A) (A) (A) (A)
                 (A) (A) (A) (A) (A) (A) (A) (A) (A) (A) (A) (A)
                 (A) (A) (A) (A) (A) (A) (A) (A) (A) (A) (A) (A)
                 (A) (A) (A) (A) (A) (A) (A) (A) (A) (A) (A) (A)
                 (A) (A) (A) (A) (A) (A) (A) (A) (A) (A) (A) (A)
                 (A) (A) (A) (A) (A) (A) (A) (A) (A) (A) (A) (A)
                 (A) (A) (A) (A) (A) (A) (A) (A) (A) (A) (A) (A)
                 (A) (A) (A) (A) (A) (A) (A) (A) (A) (A) (A) (A)
                 (A) (A) (A) (A) (A)
 The electronic state is 1-A.
 Alpha  occ. eigenvalues --  -19.23416 -19.19992 -19.19938 -19.16162 -14.59385
 Alpha  occ. eigenvalues --  -14.43722 -14.40569 -10.38759 -10.31079 -10.30544
 Alpha  occ. eigenvalues --  -10.30322 -10.30256 -10.28374 -10.28151 -10.28022
 Alpha  occ. eigenvalues --  -10.26460 -10.25930 -10.25655 -10.25396 -10.25270
 Alpha  occ. eigenvalues --  -10.25061 -10.25037 -10.24808 -10.24762 -10.24692
 Alpha  occ. eigenvalues --  -10.24678 -10.24519 -10.24347 -10.24207 -10.24161
 Alpha  occ. eigenvalues --  -10.24026 -10.23926  -1.27255  -1.18040  -1.10071
 Alpha  occ. eigenvalues --   -1.08836  -1.07105  -1.00052  -0.94253  -0.93670
 Alpha  occ. eigenvalues --   -0.92345  -0.90330  -0.87993  -0.85622  -0.83031
 Alpha  occ. eigenvalues --   -0.82188  -0.82123  -0.81370  -0.81035  -0.79272
 Alpha  occ. eigenvalues --   -0.76556  -0.73729  -0.72494  -0.69055  -0.68852
 Alpha  occ. eigenvalues --   -0.68408  -0.67262  -0.67076  -0.64782  -0.64252
 Alpha  occ. eigenvalues --   -0.63194  -0.62229  -0.61161  -0.60441  -0.59389
 Alpha  occ. eigenvalues --   -0.57851  -0.57140  -0.56763  -0.55774  -0.55026
 Alpha  occ. eigenvalues --   -0.54785  -0.54296  -0.53242  -0.52378  -0.51986
 Alpha  occ. eigenvalues --   -0.51452  -0.51334  -0.51099  -0.50855  -0.50053
 Alpha  occ. eigenvalues --   -0.49975  -0.49494  -0.49403  -0.49047  -0.48465
 Alpha  occ. eigenvalues --   -0.48019  -0.47653  -0.46459  -0.46030  -0.44673
 Alpha  occ. eigenvalues --   -0.44118  -0.43613  -0.43134  -0.42716  -0.42537
 Alpha  occ. eigenvalues --   -0.41596  -0.41564  -0.41318  -0.41058  -0.37891
 Alpha  occ. eigenvalues --   -0.37004  -0.35966  -0.35788  -0.35235  -0.34482
 Alpha  occ. eigenvalues --   -0.34104  -0.33185  -0.32452  -0.32314  -0.31958
 Alpha  occ. eigenvalues --   -0.31205  -0.29230
 Alpha virt. eigenvalues --   -0.19107  -0.13939  -0.09644  -0.08001  -0.07827
 Alpha virt. eigenvalues --   -0.07169  -0.05985  -0.05245  -0.05232  -0.04520
 Alpha virt. eigenvalues --   -0.04100  -0.03514  -0.02844  -0.02660  -0.02511
 Alpha virt. eigenvalues --   -0.02046  -0.01972  -0.01597  -0.01097  -0.00667
 Alpha virt. eigenvalues --   -0.00488  -0.00104   0.00142   0.00231   0.00750
 Alpha virt. eigenvalues --    0.00964   0.01228   0.01674   0.01994   0.02365
 Alpha virt. eigenvalues --    0.02778   0.03025   0.03524   0.03542   0.04065
 Alpha virt. eigenvalues --    0.04279   0.04540   0.04936   0.05096   0.05360
 Alpha virt. eigenvalues --    0.05647   0.05771   0.05878   0.06366   0.06464
 Alpha virt. eigenvalues --    0.06736   0.06781   0.07125   0.07545   0.07633
 Alpha virt. eigenvalues --    0.07712   0.07772   0.07981   0.08219   0.08284
 Alpha virt. eigenvalues --    0.08405   0.08621   0.08733   0.08877   0.08927
 Alpha virt. eigenvalues --    0.08993   0.09303   0.09540   0.09693   0.09809
 Alpha virt. eigenvalues --    0.09908   0.09994   0.10368   0.10416   0.10812
 Alpha virt. eigenvalues --    0.10844   0.11044   0.11370   0.11505   0.11680
 Alpha virt. eigenvalues --    0.11960   0.12032   0.12274   0.12506   0.12796
 Alpha virt. eigenvalues --    0.13006   0.13301   0.13384   0.13438   0.13775
 Alpha virt. eigenvalues --    0.13844   0.14084   0.14345   0.14392   0.14597
 Alpha virt. eigenvalues --    0.14840   0.15069   0.15353   0.15505   0.15647
 Alpha virt. eigenvalues --    0.15866   0.16083   0.16317   0.16450   0.16640
 Alpha virt. eigenvalues --    0.16870   0.16985   0.17179   0.17269   0.17761
 Alpha virt. eigenvalues --    0.17882   0.18320   0.18381   0.18475   0.18810
 Alpha virt. eigenvalues --    0.18993   0.19280   0.19429   0.19756   0.19847
 Alpha virt. eigenvalues --    0.20020   0.20221   0.20409   0.20777   0.21015
 Alpha virt. eigenvalues --    0.21246   0.21305   0.21587   0.21896   0.22173
 Alpha virt. eigenvalues --    0.22442   0.22561   0.22620   0.22855   0.22950
 Alpha virt. eigenvalues --    0.23289   0.23404   0.23595   0.23702   0.24025
 Alpha virt. eigenvalues --    0.24044   0.24540   0.24678   0.24855   0.24965
 Alpha virt. eigenvalues --    0.25331   0.25717   0.25760   0.25783   0.26115
 Alpha virt. eigenvalues --    0.26370   0.26490   0.26641   0.26784   0.27130
 Alpha virt. eigenvalues --    0.27186   0.27496   0.27695   0.28017   0.28163
 Alpha virt. eigenvalues --    0.28479   0.28686   0.28933   0.29187   0.29293
 Alpha virt. eigenvalues --    0.29764   0.29853   0.30313   0.30406   0.30613
 Alpha virt. eigenvalues --    0.30965   0.31053   0.31414   0.31591   0.31882
 Alpha virt. eigenvalues --    0.32128   0.32578   0.32935   0.33006   0.33194
 Alpha virt. eigenvalues --    0.33494   0.33850   0.34370   0.34429   0.34788
 Alpha virt. eigenvalues --    0.35029   0.35391   0.36020   0.36370   0.36544
 Alpha virt. eigenvalues --    0.37117   0.37456   0.37725   0.38007   0.38650
 Alpha virt. eigenvalues --    0.38959   0.39206   0.39553   0.40665   0.41107
 Alpha virt. eigenvalues --    0.41268   0.41895   0.42620   0.43307   0.43550
 Alpha virt. eigenvalues --    0.44198   0.44339   0.45366   0.46035   0.46470
 Alpha virt. eigenvalues --    0.47529   0.47808   0.48379   0.48788   0.48962
 Alpha virt. eigenvalues --    0.49265   0.49730   0.50162   0.50333   0.50716
 Alpha virt. eigenvalues --    0.51044   0.51515   0.51988   0.52348   0.52848
 Alpha virt. eigenvalues --    0.53393   0.53590   0.54613   0.54990   0.55224
 Alpha virt. eigenvalues --    0.55658   0.55766   0.55979   0.56149   0.56659
 Alpha virt. eigenvalues --    0.57293   0.57849   0.58149   0.58434   0.58577
 Alpha virt. eigenvalues --    0.59257   0.59405   0.59669   0.59749   0.60370
 Alpha virt. eigenvalues --    0.61118   0.61327   0.61697   0.61952   0.62357
 Alpha virt. eigenvalues --    0.62765   0.63215   0.63759   0.63951   0.64306
 Alpha virt. eigenvalues --    0.64959   0.65325   0.65465   0.66011   0.66227
 Alpha virt. eigenvalues --    0.66715   0.67204   0.67368   0.67842   0.68185
 Alpha virt. eigenvalues --    0.68446   0.68969   0.69218   0.69321   0.69672
 Alpha virt. eigenvalues --    0.70334   0.70439   0.70891   0.71654   0.71753
 Alpha virt. eigenvalues --    0.72004   0.72178   0.72724   0.72872   0.73646
 Alpha virt. eigenvalues --    0.74552   0.74606   0.75148   0.75624   0.76233
 Alpha virt. eigenvalues --    0.76492   0.76572   0.77506   0.78111   0.78494
 Alpha virt. eigenvalues --    0.79126   0.79695   0.80282   0.80403   0.81182
 Alpha virt. eigenvalues --    0.81567   0.81748   0.82112   0.82585   0.83703
 Alpha virt. eigenvalues --    0.83906   0.84269   0.84982   0.85206   0.85429
 Alpha virt. eigenvalues --    0.86266   0.86782   0.87286   0.87671   0.88078
 Alpha virt. eigenvalues --    0.88416   0.88861   0.89142   0.89454   0.90052
 Alpha virt. eigenvalues --    0.90362   0.90824   0.91823   0.92557   0.92773
 Alpha virt. eigenvalues --    0.93443   0.94084   0.94759   0.94932   0.95487
 Alpha virt. eigenvalues --    0.96439   0.96726   0.97234   0.97302   0.97945
 Alpha virt. eigenvalues --    0.98946   0.99229   0.99789   0.99996   1.00507
 Alpha virt. eigenvalues --    1.01012   1.01674   1.01807   1.02145   1.02699
 Alpha virt. eigenvalues --    1.03045   1.03996   1.04100   1.05046   1.05402
 Alpha virt. eigenvalues --    1.06014   1.06534   1.06861   1.07307   1.08010
 Alpha virt. eigenvalues --    1.08831   1.09426   1.09592   1.10219   1.11491
 Alpha virt. eigenvalues --    1.11707   1.12124   1.13594   1.13923   1.14742
 Alpha virt. eigenvalues --    1.15129   1.16550   1.16730   1.18288   1.18438
 Alpha virt. eigenvalues --    1.18996   1.19403   1.21004   1.21541   1.22545
 Alpha virt. eigenvalues --    1.23538   1.24502   1.25016   1.25475   1.27277
 Alpha virt. eigenvalues --    1.27972   1.28519   1.29249   1.31236   1.31993
 Alpha virt. eigenvalues --    1.32387   1.34320   1.35121   1.36503   1.37306
 Alpha virt. eigenvalues --    1.39064   1.39579   1.40308   1.40761   1.42666
 Alpha virt. eigenvalues --    1.42874   1.43672   1.44461   1.44814   1.45675
 Alpha virt. eigenvalues --    1.46059   1.46280   1.47360   1.47738   1.48243
 Alpha virt. eigenvalues --    1.48818   1.49191   1.50017   1.50921   1.51135
 Alpha virt. eigenvalues --    1.51413   1.52148   1.52427   1.52719   1.53133
 Alpha virt. eigenvalues --    1.53315   1.53834   1.54404   1.54782   1.55739
 Alpha virt. eigenvalues --    1.56275   1.57113   1.57477   1.58127   1.58649
 Alpha virt. eigenvalues --    1.59312   1.60364   1.60846   1.60978   1.61690
 Alpha virt. eigenvalues --    1.62506   1.62572   1.63170   1.63641   1.64263
 Alpha virt. eigenvalues --    1.65097   1.65761   1.66521   1.66625   1.67557
 Alpha virt. eigenvalues --    1.68516   1.68947   1.69398   1.69500   1.70017
 Alpha virt. eigenvalues --    1.70045   1.70968   1.71579   1.72702   1.73128
 Alpha virt. eigenvalues --    1.73837   1.74081   1.74491   1.75279   1.76393
 Alpha virt. eigenvalues --    1.77153   1.78287   1.78863   1.79168   1.80075
 Alpha virt. eigenvalues --    1.81464   1.81808   1.82412   1.82602   1.82909
 Alpha virt. eigenvalues --    1.83533   1.84389   1.85043   1.85226   1.85910
 Alpha virt. eigenvalues --    1.86553   1.87187   1.87497   1.88308   1.88371
 Alpha virt. eigenvalues --    1.89473   1.89696   1.90050   1.90585   1.90927
 Alpha virt. eigenvalues --    1.91373   1.92058   1.92586   1.92787   1.93640
 Alpha virt. eigenvalues --    1.94125   1.94781   1.95421   1.96153   1.96881
 Alpha virt. eigenvalues --    1.97264   1.97815   1.99241   2.00047   2.01450
 Alpha virt. eigenvalues --    2.01792   2.02536   2.02947   2.03575   2.04452
 Alpha virt. eigenvalues --    2.05332   2.05787   2.06004   2.07299   2.08252
 Alpha virt. eigenvalues --    2.08923   2.10621   2.11398   2.12697   2.13815
 Alpha virt. eigenvalues --    2.14703   2.16144   2.16617   2.18259   2.20061
 Alpha virt. eigenvalues --    2.20740   2.22734   2.23112   2.23483   2.23753
 Alpha virt. eigenvalues --    2.25202   2.25815   2.27726   2.28242   2.31463
 Alpha virt. eigenvalues --    2.32521   2.33394   2.35415   2.36085   2.36692
 Alpha virt. eigenvalues --    2.37697   2.39177   2.39402   2.39925   2.41361
 Alpha virt. eigenvalues --    2.41950   2.42304   2.42833   2.43860   2.44366
 Alpha virt. eigenvalues --    2.44748   2.45406   2.46463   2.47960   2.48273
 Alpha virt. eigenvalues --    2.49389   2.52419   2.52784   2.55738   2.56876
 Alpha virt. eigenvalues --    2.57141   2.57497   2.58074   2.59857   2.61305
 Alpha virt. eigenvalues --    2.61620   2.63029   2.64043   2.64523   2.64795
 Alpha virt. eigenvalues --    2.65101   2.66086   2.66246   2.67125   2.67395
 Alpha virt. eigenvalues --    2.67573   2.68430   2.69403   2.69680   2.70377
 Alpha virt. eigenvalues --    2.71301   2.71447   2.71675   2.71944   2.72664
 Alpha virt. eigenvalues --    2.73154   2.73535   2.74121   2.74308   2.74487
 Alpha virt. eigenvalues --    2.75307   2.75762   2.76462   2.76851   2.77156
 Alpha virt. eigenvalues --    2.77836   2.78468   2.78936   2.79115   2.80313
 Alpha virt. eigenvalues --    2.80769   2.81046   2.81688   2.81901   2.83041
 Alpha virt. eigenvalues --    2.83485   2.83934   2.84183   2.84566   2.85472
 Alpha virt. eigenvalues --    2.86123   2.86781   2.87796   2.88214   2.88532
 Alpha virt. eigenvalues --    2.89491   2.89875   2.90051   2.90656   2.91342
 Alpha virt. eigenvalues --    2.92585   2.93655   2.95629   2.96346   2.97289
 Alpha virt. eigenvalues --    2.99690   3.00653   3.01874   3.03723   3.03899
 Alpha virt. eigenvalues --    3.04620   3.05763   3.06636   3.07152   3.07869
 Alpha virt. eigenvalues --    3.09143   3.10371   3.11832   3.15110   3.15259
 Alpha virt. eigenvalues --    3.15842   3.19913   3.21088   3.22320   3.23444
 Alpha virt. eigenvalues --    3.26061   3.27992   3.28617   3.30644   3.31081
 Alpha virt. eigenvalues --    3.31558   3.33004   3.33280   3.33313   3.35985
 Alpha virt. eigenvalues --    3.36956   3.38114   3.39788   3.40823   3.42897
 Alpha virt. eigenvalues --    3.45836   3.47911   3.48220   3.49541   3.50165
 Alpha virt. eigenvalues --    3.52261   3.54994   3.56120   3.57700   3.58440
[...]
                                                    266(r),383(r),215(r),135(r)
                                                    270(r),320(r),294(r),697(r)
                                                    576(r),193(r),464(r),123(r)
                                                    852(r),122(r),677(g),662(r)
                                                    475(r),188(r),714(g),330(r)
                                                    692(r),646(v),329(r),370(r)
                                                    276(r),731(v),549(r),239(r)
                                                    630(v),226(r),704(g),183(r)
                                                    684(r),748(r),178(r),127(r)
                                                    429(r),171(r),279(r),642(v)
                                                    346(r),856(r),517(r),727(v)
                                                    470(r),679(g),539(r),674(g)
                                                    217(r),809(r),354(r),456(r)
                                                    795(r),362(r),151(r),756(r)
                                                    505(r),730(v),444(r),680(g)
                                                    224(r),390(r),683(r),146(r)
                                                    121(r),686(r),137(r),287(r)
                                                    673(g),267(r),150(r),448(r)
                                                    453(r),665(g),513(r),425(r)
                                                    230(r),573(r),341(r),174(r)
                                                    424(r),234(r),418(r),568(r)
                                                    451(r),328(r),786(r),389(r)
                                                    324(r),570(r),736(v),269(r)
                                                    476(r),176(r),342(r),387(r)
                                                    373(r),766(r),223(r),416(r)
                                                    384(r),619(r),152(r),393(r)
                                                    558(r),583(r),254(r),724(v)
                                                    199(r),571(r),822(r),200(r)
                                                    716(g),839(g),821(r),196(r)
                                                    455(r),284(r),319(r),466(r)
                                                    216(r),228(r),506(r),463(r)
                                                    162(r),165(r),185(r),757(r)
                                                    598(r),141(r),602(r),140(r)
                                                    133(r),507(r),524(r),754(v)
                                                    257(r),382(r),494(r),268(r)
                                                    723(v),504(r),490(r),816(r)
                                                    564(r),227(r),808(r),348(r)
                                                    752(v),102(r),500(r),557(r)
                                                    252(r),497(r),587(r),400(r)
                                                    197(r),552(r),371(r),511(r)
                                                    437(r),179(r),301(r),712(g)
                                                    788(r),633(v),288(r),259(r)
                                                    139(r),248(r),256(r),247(r)
                                                    628(r),315(r),580(r),705(g)
                                                    479(r),657(r),206(r),398(r)
                                                    132(r),262(r),136(r),696(r)
                                                    361(r),457(r),682(r),205(r)
                                                    689(r),710(g),375(r),352(r)
                                                    520(r),770(r),790(r),399(r)
                                                    781(r),508(r),281(r),459(r)
                                                    753(v),481(r),250(r),434(r)
                                                    477(r),392(r),560(r),289(r)
                                                    694(r),180(r),491(r),353(r)
                                                    430(r),726(v),154(r),149(r)
                                                    744(r),792(r),553(r),255(r)
                                                    536(r),780(r),462(r),134(r)
                                                    742(v),815(r),537(r),280(r)
                                                    546(r),811(r),857(r)
   841. BD*(   1) C  43 - H  47          0.01404    -0.80705   
   842. BD*(   1) C  44 - C  48          0.01552   -36.26779   
   843. BD*(   2) C  44 - C  48          0.30464  -167.67068  653(v),240(r),305(r),836(r)
                                                    776(r),837(g),231(r),155(r)
                                                    777(r),621(r),772(r),771(r)
                                                    769(r),842(g),844(g),377(r)
                                                    751(r),299(r),774(r),242(r)
                                                    775(r),702(r),337(r),779(r)
                                                    649(v),617(r),829(r),763(r)
                                                    338(r),300(r),241(r),830(r)
                                                    236(r),765(r),773(r),302(r)
                                                    244(r),645(r),380(r),663(v)
                                                    618(r),835(v),768(r),620(r)
                                                    615(r),622(r),335(r),847(g)
                                                    729(g),285(r),656(v),336(r)
                                                    828(r),286(r),762(r),376(r)
                                                    623(r),627(r),629(r),778(r)
                                                    701(r),625(r),644(r),331(r)
                                                    396(r),350(r),650(v),367(r)
                                                    308(r),693(g),333(r),672(r)
                                                    699(r),659(v),641(r),295(r)
                                                    697(g),646(r),160(r),303(r)
                                                    750(r),378(r),381(r),246(r)
                                                    685(g),264(r),351(r),306(r)
                                                    235(r),421(r),245(r),626(r)
                                                    614(r),654(v),203(r),298(r)
                                                    322(r),190(r),639(r),173(r)
                                                    394(r),715(v),640(r),707(v)
                                                    687(g),265(r),358(r),278(r)
                                                    616(r),282(r),719(v),655(v)
                                                    364(r),233(r),379(r),168(r)
                                                    304(r),841(r),410(r),324(r)
                                                    124(r),116(r),749(v),277(r)
                                                    397(r),391(r),787(r),261(r)
                                                    230(r),473(r),125(r),698(r)
                                                    648(v),366(r),436(r),660(v)
                                                    675(r),365(r),450(r),439(r)
                                                    156(r),766(r),624(r),452(r)
                                                    676(r),465(r),316(r),189(r)
                                                    688(g),334(r),711(v),737(g)
                                                    840(v),619(r),658(v),167(r)
                                                    422(r),669(r),313(r),142(r)
                                                    212(r),143(r),293(r),157(r)
                                                    417(r),838(v),232(r),635(r)
                                                    296(r),318(r),671(r),733(g)
                                                    634(r),460(r),823(r),636(r)
                                                    691(g),735(g),211(r),791(r)
                                                    204(r),447(r),210(r),740(g)
                                                    657(v),317(r),207(r),188(r)
                                                    393(r),435(r),332(r),445(r)
                                                    652(v),764(r),349(r),668(r)
                                                    443(r),372(r),425(r),728(g)
                                                    127(r),117(r),446(r),320(r)
                                                    209(r),628(r),187(r),323(r)
                                                    453(r),172(r),314(r),464(r)
                                                    202(r),720(v),451(r),478(r)
                                                    326(r),651(v),760(v),758(v)
                                                    703(r),662(v),307(r),833(r)
                                                    761(v),247(r),354(r),666(r)
                                                    709(v),512(r),226(r),429(r)
                                                    485(r),522(r),225(r),638(r)
                                                    845(g),673(r),362(r),398(r)
                                                    677(r),146(r),743(g),292(r)
                                                    692(g),642(r),357(r),213(r)
                                                    263(r),468(r),297(r),505(r)
                                                    390(r),193(r),239(r),679(r)
                                                    347(r),186(r),141(r),158(r)
                                                    374(r),275(r),279(r),780(r)
                                                    170(r),480(r),345(r),732(g)
                                                    809(r),120(r),368(r),260(r)
                                                    329(r),383(r),438(r),169(r)
                                                    748(v),770(r),680(r),284(r)
                                                    714(v),510(r),344(r),706(v)
                                                    736(g),458(r),463(r),474(r)
                                                    360(r),448(r),312(r),839(v)
                                                    159(r),387(r),449(r),442(r)
                                                    767(r),723(r),224(r),670(r)
                                                    483(r),310(r),713(v),294(r)
                                                    327(r),138(r),321(r),795(r)
                                                    154(r),689(g),786(r),730(g)
                                                    271(r),276(r),524(r),754(r)
                                                    191(r),270(r),454(r),576(r)
                                                    171(r),319(r),315(r),502(r)
                                                    249(r),498(r),552(r),545(r)
                                                    712(v),281(r),519(r),516(r)
                                                    504(r),370(r),466(r),520(r)
                                                    573(r),808(r),340(r),816(r)
                                                    757(v),325(r),684(g),309(r)
                                                    822(r),831(r),266(r),539(r)
                                                    208(r),330(r),178(r),731(g)
                                                    821(r),674(r),444(r),696(g)
                                                    756(v),507(r),426(r),227(r)
                                                    228(r),182(r),254(r),269(r)
                                                    462(r),470(r),177(r),348(r)
                                                    214(r),140(r),430(r),272(r)
                                                    126(r),274(r),661(v),716(v)
                                                    570(r),631(r),432(r),102(r)
                                                    437(r),222(r),384(r),267(r)
                                                    725(r),162(r),548(r),371(r)
                                                    145(r),632(r),223(r),183(r)
                                                    511(r),690(g),359(r),220(r)
                                                    174(r),389(r),388(r),494(r)
                                                    517(r),205(r),637(r),215(r)
                                                    409(r),206(r),471(r),256(r)
                                                    549(r),745(v),176(r),352(r)
                                                    375(r),402(r),353(r),788(r)
                                                    130(r),161(r),424(r),164(r)
                                                    815(r),416(r),433(r),558(r)
                                                    683(g),268(r),373(r),643(r)
                                                    434(r),121(r),718(v),461(r)
                                                    790(r),341(r),280(r),273(r)
                                                    742(g),355(r),501(r),395(r)
                                                    118(r),185(r),664(r),496(r)
                                                    151(r),328(r),136(r),342(r)
                                                    221(r),476(r),568(r),252(r)
                                                    197(r),491(r),678(r),482(r)
                                                    457(r),481(r),708(v),135(r)
                                                    180(r),237(r),456(r),356(r)
                                                    508(r),179(r),553(r),518(r)
                                                    122(r),741(g),392(r),175(r)
                                                    455(r),459(r),385(r),199(r)
                                                    440(r),526(r),546(r),250(r)
                                                    513(r),257(r),166(r),475(r)
                                                    115(r),544(r),846(v),564(r)
                                                    467(r),218(r),633(r),686(g)
                                                    752(r),805(r),346(r),288(r)
                                                    153(r),521(r),744(v),195(r)
                                                    361(r),506(r),515(r),262(r)
                                                    814(r),248(r),234(r),243(r)
                                                    560(r),710(v),408(r),291(r)
                                                    799(r),219(r),598(r),832(r)
                                                    727(g),128(r),583(r),792(r)
                                                    477(r),287(r),834(v),486(r)
                                                    123(r),602(r),129(r),289(r)
                                                    807(r),575(r),150(r),495(r)
                                                    119(r),722(r),133(r),514(r)
                                                    747(v),479(r)
   844. BD*(   1) C  44 - H  49          0.01298   -34.80057   
   845. BD*(   1) C  46 - C  48          0.01558     2.03932   
   846. BD*(   1) C  46 - H  50          0.01321     2.22338   
   847. BD*(   1) C  48 - H  51          0.01247    -5.01947   
       -------------------------------
              Total Lewis  216.18982  ( 96.5133%)
        Valence non-Lewis    7.31506  (  3.2657%)
        Rydberg non-Lewis    0.49511  (  0.2210%)
       -------------------------------
            Total unit  1  224.00000  (100.0000%)
           Charge unit  1    1.00000
 Leave Link  607 at Fri Mar 21 23:38:33 2025, MaxMem=  3758096384 cpu:             155.1 elap:               9.7
 (Enter /cm/shared/apps/spack/cpu/opt/spack/linux-centos8-zen/gcc-8.3.1/gaussian-16.C.01-po5bqktfeugvmjyga3v7eigbecnokxng/g16/l9999.exe)
 Unable to Open any file for archive entry.
 1\1\GINC-EXP-13-52\SP\RB3LYP\6-311++G(d,p)\C25H22N3O4(1+)\MGALANTE\21-
 Mar-2025\0\\#p B3LYP 6-311++G** empiricaldispersion=gd3bj pop=nbo scf=
 tight scrf=(pcm,solvent=Toluene) geom=check\\reactant fragmant from S1
 5\\1,1\C,0,-1.6357334979,-0.46978924,-2.7615359131\C,0,-2.6723944044,0
 .2661239778,-2.0911580957\C,0,-3.2533341221,-0.1882703155,-0.893989021
 4\C,0,-2.7563885577,-1.3647824579,-0.3648654456\C,0,-1.7018183088,-2.0
 969690432,-0.9907282837\C,0,-1.1405334668,-1.6649745504,-2.169997785\C
 ,0,-1.3138116217,0.2152275871,-3.9467501631\C,0,-2.1416173516,1.392292
 8852,-3.98478093\H,0,-4.0470105487,0.3651563591,-0.4023220877\H,0,-3.1
 753086385,-1.745761059,0.5618453436\H,0,-1.3495416862,-3.0103572629,-0
 .5228831379\H,0,-0.3453934636,-2.2294623012,-2.6457408578\N,0,-2.92140
 54658,1.3821921561,-2.8146092607\H,0,-3.6653116209,2.0429825227,-2.634
 7962729\C,0,-2.2171237015,2.4420537601,-4.891293115\C,0,-0.1484578949,
 -0.1285338279,-4.8176750264\C,0,1.09887307,0.7479546604,-4.5083374739\
 N,0,1.5404988242,0.6624546633,-3.1294723306\H,0,0.1140648255,-1.179012
 974,-4.6595287054\H,0,-0.3784831403,-0.0208258389,-5.8804723382\H,0,1.
 9209777512,0.4263469675,-5.1530197165\H,0,0.8842574352,1.7963359186,-4
 .7277260855\C,0,1.0257900041,1.4708306483,-2.1689743101\O,0,0.15583502
 15,2.3078200056,-2.343538487\O,0,1.6205152454,1.2150405057,-0.96440682
 12\H,0,2.2676992864,0.0121084014,-2.86266561\C,0,1.0301969498,1.805080
 9573,0.1560012925\C,0,1.6843620015,2.8603436678,0.7824629955\C,0,-0.16
 81659844,1.284057293,0.6399736249\C,0,1.1151068374,3.4255397922,1.9232
 416896\H,0,2.6201195699,3.232784865,0.3799319941\C,0,-0.7437537226,1.8
 487370046,1.7726893215\H,0,-0.6376788288,0.4485009333,0.1348163564\C,0
 ,-0.0939810958,2.9159756495,2.3930227076\H,0,1.5896882587,4.2500941823
 ,2.4410145289\H,0,-1.6749316617,1.4761195126,2.181376032\N,0,-0.713737
 0702,3.5265993184,3.5825735771\O,0,-1.8011579768,3.0786436299,3.948644
 7199\O,0,-0.1113446192,4.448172705,4.1293734997\C,0,-1.6851730715,2.32
 34514898,-6.287385103\C,0,-2.8058234615,3.7144654223,-4.4825196958\C,0
 ,-3.64296011,4.4535197093,-5.34873794\C,0,-2.4817081601,4.2559715347,-
 3.2129201434\C,0,-4.1729777901,5.6728146475,-4.9422535855\H,0,-3.91846
 78339,4.0510898054,-6.3182561243\C,0,-2.9897450958,5.4937006035,-2.831
 8644845\H,0,-1.7766840838,3.7325891616,-2.5750190498\C,0,-3.8445132073
 ,6.1980496055,-3.6867371526\H,0,-4.8400129851,6.2176367495,-5.60300779
 78\H,0,-2.7093148038,5.9162149562,-1.8717974745\H,0,-4.2470166464,7.15
 90113347,-3.3805113229\H,0,-1.7232292968,1.3054308993,-6.675505503\H,0
 ,-2.2378577222,2.9785385971,-6.9644070881\H,0,-0.6446883612,2.67543582
 48,-6.3166709435\\Version=ES64L-G16RevC.01\State=1-A\HF=-1431.3153553\
 RMSD=6.481e-09\Dipole=-0.4883412,-1.7549489,-5.3660151\Quadrupole=3.29
 68979,6.2017698,-9.4986677,-12.3375687,5.2520154,-13.3039805\PG=C01 [X
 (C25H22N3O4)]\\@
 The archive entry for this job was punched.


 O WAD SOME POWER THE GIFTIE GIE US       
 TO SEE OURSELS AS OTHERS SEE US.....     
 IT WOULD FRAE MONIE A BLUNDER FREE US,   
                     AND FOOLISH NOTION...
 WHAT AIRS IN DRESS AND GAIT WAD LEA'E US,
                     AND EV'N DEVOTION....
                                          
              (ROBERT BURNS 'TO A LOUSE') 
 Job cpu time:       0 days  2 hours  2 minutes 15.7 seconds.
 Elapsed time:       0 days  0 hours  7 minutes 43.7 seconds.
 File lengths (MBytes):  RWF=    625 Int=      0 D2E=      0 Chk=     61 Scr=      1
 Normal termination of Gaussian 16 at Fri Mar 21 23:38:34 2025.
